n0045.mhg 10.0.22
Q-Chem Developer Version! Running on 10.0.22.*
                  Welcome to Q-Chem
     A Quantum Leap Into The Future Of Chemistry


 Q-Chem 5.1, Q-Chem, Inc., Pleasanton, CA (2018)

 Yihan Shao,  Zhengting Gan,  E. Epifanovsky,  A. T. B. Gilbert,  M. Wormit,  
 J. Kussmann,  A. W. Lange,  A. Behn,  Jia Deng,  Xintian Feng,  D. Ghosh,  
 M. Goldey,  P. R. Horn,  L. D. Jacobson,  I. Kaliman,  T. Kus,  A. Landau,  
 Jie Liu,  E. I. Proynov,  R. M. Richard,  R. P. Steele,  E. J. Sundstrom,  
 H. L. Woodcock III,  P. M. Zimmerman,  D. Zuev,  B. Albrecht,  E. Alguire,  
 S. A. Baeppler,  D. Barton,  Z. Benda,  Y. A. Bernard,  E. J. Berquist,  
 K. B. Bravaya,  H. Burton,  D. Casanova,  Chun-Min Chang,  Yunqing Chen,  
 A. Chien,  K. D. Closser,  M. P. Coons,  S. Coriani,  S. Dasgupta,  
 A. L. Dempwolff,  M. Diedenhofen,  Hainam Do,  R. G. Edgar,  Po-Tung Fang,  
 S. Faraji,  S. Fatehi,  Qingguo Feng,  K. D. Fenk,  J. Fosso-Tande,  
 Qinghui Ge,  A. Ghysels,  G. Gidofalvi,  J. Gomes,  J. Gonthier,  A. Gunina,  
 D. Hait,  M. W. D. Hanson-Heine,  P. H. P. Harbach,  A. W. Hauser,  
 J. E. Herr,  E. G. Hohenstein,  Z. C. Holden,  Kerwin Hui,  B. C. Huynh,  
 T.-C. Jagau,  Hyunjun Ji,  B. Kaduk,  K. Khistyaev,  Jaehoon Kim,  
 P. Klunzinger,  K. Koh,  D. Kosenkov,  L. Koulias,  T. Kowalczyk,  
 C. M. Krauter,  A. Kunitsa,  Ka Un Lao,  A. Laurent,  K. V. Lawler,  
 Joonho Lee,  D. Lefrancois,  S. Lehtola,  D. S. Levine,  Yi-Pei Li,  
 You-Sheng Lin,  Fenglai Liu,  E. Livshits,  A. Luenser,  P. Manohar,  
 E. Mansoor,  S. F. Manzer,  Shan-Ping Mao,  Yuezhi Mao,  N. Mardirossian,  
 A. V. Marenich,  T. Markovich,  L. A. Martinez-Martinez,  S. A. Maurer,  
 N. J. Mayhall,  S. C. McKenzie,  J.-M. Mewes,  A. F. Morrison,  
 J. W. Mullinax,  K. Nanda,  T. S. Nguyen-Beck,  R. Olivares-Amaya,  
 J. A. Parkhill,  T. M. Perrine,  F. Plasser,  P. Pokhilko,  S. Prager,  
 A. Prociuk,  E. Ramos,  D. R. Rehn,  F. Rob,  M. Schneider,  N. Sergueev,  
 S. M. Sharada,  S. Sharma,  D. W. Small,  T. Stauch,  T. Stein,  
 Yu-Chuan Su,  A. J. W. Thom,  A. Tkatchenko,  T. Tsuchimochi,  N. M. Tubman,  
 L. Vogt,  M. L. Vidal,  O. Vydrov,  M. A. Watson,  J. Wenzel,  
 M. de Wergifosse,  T. A. Wesolowski,  A. White,  J. Witte,  A. Yamada,  
 Jun Yang,  K. Yao,  S. Yeganeh,  S. R. Yost,  Zhi-Qiang You,  A. Zech,  
 Igor Ying Zhang,  Xing Zhang,  Yan Zhao,  Ying Zhu,  B. R. Brooks,  
 G. K. L. Chan,  C. J. Cramer,  M. S. Gordon,  W. J. Hehre,  A. Klamt,  
 M. W. Schmidt,  C. D. Sherrill,  D. G. Truhlar,  A. Aspuru-Guzik,  R. Baer,  
 A. T. Bell,  N. A. Besley,  Jeng-Da Chai,  R. A. DiStasio Jr.,  A. Dreuw,  
 B. D. Dunietz,  T. R. Furlani,  Chao-Ping Hsu,  Yousung Jung,  Jing Kong,  
 D. S. Lambrecht,  WanZhen Liang,  C. Ochsenfeld,  V. A. Rassolov,  
 L. V. Slipchenko,  J. E. Subotnik,  T. Van Voorhis,  J. M. Herbert,  
 A. I. Krylov,  P. M. W. Gill,  M. Head-Gordon

 Contributors to earlier versions of Q-Chem not listed above: 
 R. D. Adamson,  B. Austin,  J. Baker,  G. J. O. Beran,  K. Brandhorst,  
 S. T. Brown,  E. F. C. Byrd,  A. K. Chakraborty,  C.-L. Cheng,  
 Siu Hung Chien,  D. M. Chipman,  D. L. Crittenden,  H. Dachsel,  
 R. J. Doerksen,  A. D. Dutoi,  L. Fusti-Molnar,  W. A. Goddard III,  
 A. Golubeva-Zadorozhnaya,  S. R. Gwaltney,  G. Hawkins,  A. Heyden,  
 S. Hirata,  G. Kedziora,  F. J. Keil,  C. Kelley,  Jihan Kim,  R. A. King,  
 R. Z. Khaliullin,  P. P. Korambath,  W. Kurlancheek,  A. M. Lee,  M. S. Lee,  
 S. V. Levchenko,  Ching Yeh Lin,  D. Liotard,  R. C. Lochan,  I. Lotan,  
 P. E. Maslen,  N. Nair,  D. P. O'Neill,  D. Neuhauser,  E. Neuscamman,  
 C. M. Oana,  R. Olson,  B. Peters,  R. Peverati,  P. A. Pieniazek,  
 Y. M. Rhee,  J. Ritchie,  M. A. Rohrdanz,  E. Rosta,  N. J. Russ,  
 H. F. Schaefer III,  N. E. Schultz,  N. Shenvi,  A. C. Simmonett,  A. Sodt,  
 D. Stuck,  K. S. Thanthiriwatte,  V. Vanovschi,  Tao Wang,  A. Warshel,  
 C. F. Williams,  Q. Wu,  X. Xu,  W. Zhang

 Please cite Q-Chem as follows:
 Y. Shao et al., Mol. Phys. 113, 184-215 (2015)
 DOI: 10.1080/00268976.2014.952696

 Q-Chem 5.1.0 for Intel X86 EM64T Linux

 Parts of Q-Chem use Armadillo 8.300.2 (Tropical Shenanigans).
 http://arma.sourceforge.net/

 Q-Chem begins on Tue Mar 19 02:12:16 2019  

Host: n0045.mhg0
0

     Scratch files written to /scratch/romitchak/1_1_simple.in20190319010853//

Checking the input file for inconsistencies... 	...done.

--------------------------------------------------------------
User input:
--------------------------------------------------------------
$molecule
-3 1
--
4 1
Fe 1.6361773790 0.6936015239 0.2260731674
Fe -1.6361816732 -0.6935647992 0.2259420320
--
-7 1
N 0.0897506717 1.4838317143 -0.8032098029
C 0.1053451612 2.5568558223 -1.6174470899
Cl 3.2283567465 1.4806486291 -1.4744769928
N 1.9723413242 -1.7837895692 -1.5066418885
C 1.1968016542 -2.7427072451 -2.0534963797
N -3.1392559160 0.1295143434 1.2467738662
Cl -3.2284009987 -1.4802525882 -1.4747306713
N -1.9724222708 1.7842029463 -1.5061774615
N -1.1778794085 1.0366712682 -0.7555837251
C -1.1968936028 2.7432453005 -2.0528166075
Cl 0.0000199153 -0.0001631289 1.8321427645
N -0.0897990231 -1.4835976606 -0.8035442444
N 1.1778284388 -1.0364144513 -0.7558570068
C -0.1054246234 -2.5564169408 -1.6180576493
N -4.6136051199 0.3480955772 2.8563365803
C -4.8510934615 1.3098707011 1.9255938750
C -3.9261675643 1.1746913605 0.9046262704
N -3.5726001392 -0.3590440193 2.4275637817
H 1.0338437125 3.0616491253 -1.8343474217
H 1.6141960616 -3.4910080186 -2.7170777334
H -1.6143040241 3.4916973491 -2.7162163706
H -1.0339279705 -3.0611560624 -1.8350642480
H -5.6578805109 2.0279648229 2.0413986427
H -3.7662453213 1.7071816453 -0.0204084103
N 3.1392460742 -0.1298457698 1.2466298705
C 3.9262577800 -1.1747949213 0.9039967135
N 4.6135630468 -0.3490794820 2.8561119481
N 3.5725116216 0.3581915313 2.4276621215
C 4.8511655257 -1.3103905425 1.9249192485
H 3.7663681342 -1.7068835727 -0.0212715710
H 5.6580436897 -2.0284401968 2.0403750350
$end

$rem
	jobtype opt
	method b3lyp
	dft_d d3_bj
	basis 6-31g
	scf_guess fragmo
	scf_print_frgm true
	scf_max_cycles 1500
	geom_opt_max_cycles 500
	diis_separate_errvec 1
$end

--------------------------------------------------------------
 Adding empirical dispersion correction 
 ----------------------------------------------------------------
 Doing -D3(BJ) with
 s6 =   1.00000
 s8 =   1.98890
 a1 =   0.39810
 a2 =   4.42110
 -D3 energy without 3body term =     -0.1051196515 hartrees
 ----------------------------------------------------------------
             Standard Nuclear Orientation (Angstroms)
    I     Atom           X                Y                Z
 ----------------------------------------------------------------
    1      Fe      1.6017699422     0.1185078526    -0.7697776683
    2      Fe     -1.6017616065     0.1185769768     0.7696864604
    3      N       0.0199385327    -0.9109693283    -1.4862334406
    4      C      -0.0148995893    -1.7254206259    -2.5586427249
    5      Cl      3.1552464195    -1.5821621113    -1.6304643938
    6      N       2.0540796573    -1.6137042780     1.6894155627
    7      C       1.3244934248    -2.1603853887     2.6838392229
    8      N      -3.1419000671     1.1392090143     0.0179731811
    9      Cl     -3.1551831021    -1.5819759267     1.6306912114
   10      N      -2.0540517180    -1.6140454489    -1.6891917116
   11      N      -1.2252709769    -0.8632836968    -0.9799863805
   12      C      -1.3244463969    -2.1608579785    -2.6835223613
   13      Cl     -0.0000180507     1.7246775838    -0.0001841321
   14      N      -0.0199158169    -0.9107150878     1.4863558122
   15      N       1.2252868745    -0.8630874104     0.9800672196
   16      C       0.0149351314    -1.7250144908     2.5588852280
   17      N      -4.6249475605     2.7486933754    -0.1313776981
   18      C      -4.9073551498     1.8177529423    -1.0807406152
   19      C      -3.9770635597     0.7968341034    -0.9889882271
   20      N      -3.5518372196     2.3200863378     0.5261282677
   21      H       0.8888496003    -1.9423999928    -3.1064829837
   22      H       1.7766253012    -2.8238074074     3.4118229751
   23      H      -1.7765577673    -2.8244170803    -3.4113930927
   24      H      -0.8888071347    -1.9419420566     3.1067577115
   25      H      -5.7470111776     1.9333952708    -1.7601373050
   26      H      -3.8423197213    -0.1283031936    -1.5282240452
   27      N       3.1418530742     1.1392643845    -0.0181015537
   28      C       3.9771283083     0.7968585133     0.9887634508
   29      N       4.6247932453     2.7488248796     0.1312636900
   30      N       3.5516585074     2.3202092820    -0.5262012247
   31      C       4.9073542260     1.8178298554     1.0805272434
   32      H       3.8424589639    -0.1283071970     1.5279637905
   33      H       5.7470915765     1.9334480697     1.7598293316
 ----------------------------------------------------------------
 Molecular Point Group                 C1    NOp =  1
 Largest Abelian Subgroup              C1    NOp =  1
 Nuclear Repulsion Energy =  3965.0442945865 hartrees
 There are      123 alpha and      123 beta electrons
 Requested basis set is 6-31G
 There are 102 shells and 293 basis functions

 Total QAlloc Memory Limit   2000 MB
 Mega-Array Size       188 MB
 MEM_STATIC part       192 MB
 A cutoff of  1.0D-11 yielded   3168 shell pairs
 There are     31108 function pairs
 
 -------------------------------------------------------
 OpenMP Integral Computing Module                       
 Release: version 1.0, May 2013, Q-Chem Inc. Pittsburgh 
 -------------------------------------------------------
 Integral Job Info:
 Integral job number is                      11
 Integral operator is                         1
 short-range coefficients                     0
 long-range coefficients              100000000
 Omega coefficients                           0
 if combine SR and LR in K                    0
 Integral screening is                        0
 Integral computing path is                   2
 max size of driver memory is            800000
 size of driver memory is                593474
 size of scratch memory is             15267112
 max col of scratch BK array               1296
 max len of scratch array in speh3          155
 max len of scratch index in speh4           18
 max int batch size is                      520
 min int batch size is                       52
 fixed nKL is                                52
 max L of basis functions is                  2
 order of int derivative is                   0
 number of shells is                        102
 number of basis is                         293
 number of cartesian basis is               293
 number of contracted shell pairs          3168
 number of primitive shell pairs          15038
 maxK2 (contraction) of shell pair           36
 max number of K2 of shell pair               1
 max number of CS2 of shell pair            641
 max number of PS2 of shell pair           3846
 mem total for path MDJ                  614858
 -------------------------------------------------------
 Smallest overlap matrix eigenvalue = 1.75E-03

 Scale SEOQF with 1.000000e-02/1.000000e-01/1.000000e-01

 Standard Electronic Orientation quadrupole field applied
 Nucleus-field energy     =    -0.0000000020 hartrees
Attempting to make child job directory: /scratch/romitchak/1_1_simple.in20190319010853//Frg1/
Attempting to make child job directory: /scratch/romitchak/1_1_simple.in20190319010853//Frg2/
Creating input file /scratch/romitchak/1_1_simple.in20190319010853/Frg1.input
using default PutDataFrgm: nothing
calling putenv with: QCSCRATCH=/scratch/romitchak/1_1_simple.in20190319010853/ 
Spawning Job For Fragment 0
n0045.mhg 10.0.22
Q-Chem Developer Version! Running on 10.0.22.*
                  Welcome to Q-Chem
     A Quantum Leap Into The Future Of Chemistry


 Q-Chem 5.1, Q-Chem, Inc., Pleasanton, CA (2018)

 Yihan Shao,  Zhengting Gan,  E. Epifanovsky,  A. T. B. Gilbert,  M. Wormit,  
 J. Kussmann,  A. W. Lange,  A. Behn,  Jia Deng,  Xintian Feng,  D. Ghosh,  
 M. Goldey,  P. R. Horn,  L. D. Jacobson,  I. Kaliman,  T. Kus,  A. Landau,  
 Jie Liu,  E. I. Proynov,  R. M. Richard,  R. P. Steele,  E. J. Sundstrom,  
 H. L. Woodcock III,  P. M. Zimmerman,  D. Zuev,  B. Albrecht,  E. Alguire,  
 S. A. Baeppler,  D. Barton,  Z. Benda,  Y. A. Bernard,  E. J. Berquist,  
 K. B. Bravaya,  H. Burton,  D. Casanova,  Chun-Min Chang,  Yunqing Chen,  
 A. Chien,  K. D. Closser,  M. P. Coons,  S. Coriani,  S. Dasgupta,  
 A. L. Dempwolff,  M. Diedenhofen,  Hainam Do,  R. G. Edgar,  Po-Tung Fang,  
 S. Faraji,  S. Fatehi,  Qingguo Feng,  K. D. Fenk,  J. Fosso-Tande,  
 Qinghui Ge,  A. Ghysels,  G. Gidofalvi,  J. Gomes,  J. Gonthier,  A. Gunina,  
 D. Hait,  M. W. D. Hanson-Heine,  P. H. P. Harbach,  A. W. Hauser,  
 J. E. Herr,  E. G. Hohenstein,  Z. C. Holden,  Kerwin Hui,  B. C. Huynh,  
 T.-C. Jagau,  Hyunjun Ji,  B. Kaduk,  K. Khistyaev,  Jaehoon Kim,  
 P. Klunzinger,  K. Koh,  D. Kosenkov,  L. Koulias,  T. Kowalczyk,  
 C. M. Krauter,  A. Kunitsa,  Ka Un Lao,  A. Laurent,  K. V. Lawler,  
 Joonho Lee,  D. Lefrancois,  S. Lehtola,  D. S. Levine,  Yi-Pei Li,  
 You-Sheng Lin,  Fenglai Liu,  E. Livshits,  A. Luenser,  P. Manohar,  
 E. Mansoor,  S. F. Manzer,  Shan-Ping Mao,  Yuezhi Mao,  N. Mardirossian,  
 A. V. Marenich,  T. Markovich,  L. A. Martinez-Martinez,  S. A. Maurer,  
 N. J. Mayhall,  S. C. McKenzie,  J.-M. Mewes,  A. F. Morrison,  
 J. W. Mullinax,  K. Nanda,  T. S. Nguyen-Beck,  R. Olivares-Amaya,  
 J. A. Parkhill,  T. M. Perrine,  F. Plasser,  P. Pokhilko,  S. Prager,  
 A. Prociuk,  E. Ramos,  D. R. Rehn,  F. Rob,  M. Schneider,  N. Sergueev,  
 S. M. Sharada,  S. Sharma,  D. W. Small,  T. Stauch,  T. Stein,  
 Yu-Chuan Su,  A. J. W. Thom,  A. Tkatchenko,  T. Tsuchimochi,  N. M. Tubman,  
 L. Vogt,  M. L. Vidal,  O. Vydrov,  M. A. Watson,  J. Wenzel,  
 M. de Wergifosse,  T. A. Wesolowski,  A. White,  J. Witte,  A. Yamada,  
 Jun Yang,  K. Yao,  S. Yeganeh,  S. R. Yost,  Zhi-Qiang You,  A. Zech,  
 Igor Ying Zhang,  Xing Zhang,  Yan Zhao,  Ying Zhu,  B. R. Brooks,  
 G. K. L. Chan,  C. J. Cramer,  M. S. Gordon,  W. J. Hehre,  A. Klamt,  
 M. W. Schmidt,  C. D. Sherrill,  D. G. Truhlar,  A. Aspuru-Guzik,  R. Baer,  
 A. T. Bell,  N. A. Besley,  Jeng-Da Chai,  R. A. DiStasio Jr.,  A. Dreuw,  
 B. D. Dunietz,  T. R. Furlani,  Chao-Ping Hsu,  Yousung Jung,  Jing Kong,  
 D. S. Lambrecht,  WanZhen Liang,  C. Ochsenfeld,  V. A. Rassolov,  
 L. V. Slipchenko,  J. E. Subotnik,  T. Van Voorhis,  J. M. Herbert,  
 A. I. Krylov,  P. M. W. Gill,  M. Head-Gordon

 Contributors to earlier versions of Q-Chem not listed above: 
 R. D. Adamson,  B. Austin,  J. Baker,  G. J. O. Beran,  K. Brandhorst,  
 S. T. Brown,  E. F. C. Byrd,  A. K. Chakraborty,  C.-L. Cheng,  
 Siu Hung Chien,  D. M. Chipman,  D. L. Crittenden,  H. Dachsel,  
 R. J. Doerksen,  A. D. Dutoi,  L. Fusti-Molnar,  W. A. Goddard III,  
 A. Golubeva-Zadorozhnaya,  S. R. Gwaltney,  G. Hawkins,  A. Heyden,  
 S. Hirata,  G. Kedziora,  F. J. Keil,  C. Kelley,  Jihan Kim,  R. A. King,  
 R. Z. Khaliullin,  P. P. Korambath,  W. Kurlancheek,  A. M. Lee,  M. S. Lee,  
 S. V. Levchenko,  Ching Yeh Lin,  D. Liotard,  R. C. Lochan,  I. Lotan,  
 P. E. Maslen,  N. Nair,  D. P. O'Neill,  D. Neuhauser,  E. Neuscamman,  
 C. M. Oana,  R. Olson,  B. Peters,  R. Peverati,  P. A. Pieniazek,  
 Y. M. Rhee,  J. Ritchie,  M. A. Rohrdanz,  E. Rosta,  N. J. Russ,  
 H. F. Schaefer III,  N. E. Schultz,  N. Shenvi,  A. C. Simmonett,  A. Sodt,  
 D. Stuck,  K. S. Thanthiriwatte,  V. Vanovschi,  Tao Wang,  A. Warshel,  
 C. F. Williams,  Q. Wu,  X. Xu,  W. Zhang

 Please cite Q-Chem as follows:
 Y. Shao et al., Mol. Phys. 113, 184-215 (2015)
 DOI: 10.1080/00268976.2014.952696

 Q-Chem 5.1.0 for Intel X86 EM64T Linux

 Parts of Q-Chem use Armadillo 8.300.2 (Tropical Shenanigans).
 http://arma.sourceforge.net/

 Q-Chem begins on Tue Mar 19 02:12:17 2019  

Host: n0045.mhg0
0

     Scratch files written to /scratch/romitchak/1_1_simple.in20190319010853//Frg1//

Checking the input file for inconsistencies... 	...done.

--------------------------------------------------------------
User input:
--------------------------------------------------------------
$molecule
4 1
 26	1.6017699422	0.1185078526	-0.7697776683
 26	-1.6017616065	0.1185769768	0.7696864604
$end
$rem
METHOD		B3LYP
DFT_D		D3_BJ
BASIS		6-31G
SCF_PRINT_FRGM		TRUE
SCF_MAX_CYCLES		1500
GEOM_OPT_MAX_CYCLES		500
DIIS_SEPARATE_ERRVEC		1
!required keywords
JOBTYPE		SP
SYM_IGNORE		TRUE
SUBSYSTEM		TRUE
CHILD_INSTRUCTION		1
SYM_IGNORE		TRUE
PURECART		12
MEM_STATIC		192
MEM_TOTAL		2000
GUI		0
$end
--------------------------------------------------------------
 Adding empirical dispersion correction 
 ----------------------------------------------------------------
 Doing -D3(BJ) with
 s6 =   1.00000
 s8 =   1.98890
 a1 =   0.39810
 a2 =   4.42110
 -D3 energy without 3body term =     -0.0047009959 hartrees
 ----------------------------------------------------------------
             Standard Nuclear Orientation (Angstroms)
    I     Atom           X                Y                Z
 ----------------------------------------------------------------
    1      Fe      1.6017699422     0.1185078526    -0.7697776683
    2      Fe     -1.6017616065     0.1185769768     0.7696864604
 ----------------------------------------------------------------
 Nuclear Repulsion Energy =   100.6425858155 hartrees
 There are       24 alpha and       24 beta electrons
 Requested basis set is 6-31G
 There are 14 shells and 58 basis functions

 Total QAlloc Memory Limit   2000 MB
 Mega-Array Size       188 MB
 MEM_STATIC part       192 MB

                       Distance Matrix (Angstroms)
             Fe(  1)
   Fe(  2)  3.554232
 
 A cutoff of  1.0D-08 yielded     86 shell pairs
 There are      1550 function pairs
 
 -------------------------------------------------------
 OpenMP Integral Computing Module                       
 Release: version 1.0, May 2013, Q-Chem Inc. Pittsburgh 
 -------------------------------------------------------
 Integral Job Info:
 Integral job number is                      11
 Integral operator is                         1
 short-range coefficients                     0
 long-range coefficients              100000000
 Omega coefficients                           0
 if combine SR and LR in K                    0
 Integral screening is                        0
 Integral computing path is                   2
 max size of driver memory is            800000
 size of driver memory is                593474
 size of scratch memory is             15267112
 max col of scratch BK array               1296
 max len of scratch array in speh3          155
 max len of scratch index in speh4           18
 max int batch size is                      520
 min int batch size is                       52
 fixed nKL is                                52
 max L of basis functions is                  2
 order of int derivative is                   0
 number of shells is                         14
 number of basis is                          58
 number of cartesian basis is                58
 number of contracted shell pairs            86
 number of primitive shell pairs            918
 maxK2 (contraction) of shell pair           36
 max number of K2 of shell pair               1
 max number of CS2 of shell pair             10
 max number of PS2 of shell pair            216
 mem total for path MDJ                  520238
 -------------------------------------------------------
 Smallest overlap matrix eigenvalue = 1.76E-03

 Scale SEOQF with 1.000000e-01/1.000000e-01/1.000000e-01

 Standard Electronic Orientation quadrupole field applied
 Nucleus-field energy     =     0.0000000015 hartrees
 Guess from superposition of atomic densities
 Warning:  Energy on first SCF cycle will be non-variational
 SAD guess density has 51.982013 electrons

 -----------------------------------------------------------------------
  General SCF calculation program by
  Eric Jon Sundstrom, Paul Horn, Yuezhi Mao, Dmitri Zuev, Alec White,
  David Stuck, Shaama M.S., Shane Yost, Joonho Lee, David Small,
  Daniel Levine, Susi Lehtola, Hugh Burton, Evgeny Epifanovsky
 -----------------------------------------------------------------------
 Exchange:     0.2000 Hartree-Fock + 0.0800 Slater + 0.7200 B88
 Correlation:  0.1900 VWN1RPA + 0.8100 LYP
 Using SG-1 standard quadrature grid
 Dispersion:   Grimme D3
Energy prior to optimization (guess energy) = -2524.293605542599
Begin Timing: Total SCF Calculation
begin iterations for algorithm: DIIS         
the SCF tolerance is set to 1.00e-05
    1   -2524.2936055426      1.93e-02     00000 
    2   -2524.3460924645      1.77e-02     00000 
    3   -2524.4125533564      4.18e-04     00000 
    4   -2524.4129406632      8.11e-05     00000 
    5   -2524.4129739117      4.28e-05     00000 
    6   -2524.4129922897      3.83e-05     00000 
    7   -2524.4130114643      3.80e-05     00000 
    8   -2524.4130588902      3.75e-05     00000 
    9   -2524.4136968418      1.33e-04     00000 
   10   -2524.4137131595      1.46e-04     00000 
   11   -2524.4138348921      1.95e-04     00000 
   12   -2524.4138858552      1.14e-03     00000 
   13   -2524.4138746519      1.16e-03     00000 
   14   -2524.4139756920      1.03e-03     00000 
   15   -2524.4139467934      1.07e-03     00000 
   16   -2524.4139881683      1.01e-03     00000 
   17   -2524.4139939136      1.01e-03     00000 
   18   -2524.4139174383      1.11e-03     00000 
   19   -2524.4139189995      1.10e-03     00000 
   20   -2524.4138928021      1.14e-03     00000 
   21   -2524.4138567578      1.18e-03     00000 
   22   -2524.4139392712      1.08e-03     00000 
   23   -2524.4139497460      1.06e-03     00000 
   24   -2524.4142877863      4.15e-04     00000 
   25   -2524.4143517321      1.99e-04     00000 
   26   -2524.4143666548      1.30e-05     00000 
   27   -2524.4143670638      2.69e-06     00000 Convergence criterion met
Timing for Total SCF: 1.00s (wall), 25.44s (cpu)
 
 --------------------------------------------------------------
 
                    Orbital Energies (a.u.)
 --------------------------------------------------------------
 
 Alpha MOs
 -- Occupied --
*******-257.147 -31.098 -31.098 -26.964 -26.964 -26.963 -26.962
-26.962 -26.962  -4.499  -4.499  -3.270  -3.270  -3.267  -3.267
 -3.266  -3.266  -1.297  -1.294  -1.293  -1.293  -1.292  -1.292
 -- Virtual --
 -1.125  -1.124  -1.123  -1.121  -1.045  -0.967  -0.782  -0.758
 -0.758  -0.710  -0.709  -0.647  -0.514  -0.446  -0.392  -0.392
 -0.352  -0.346  -0.345  -0.340   0.053   0.163   0.479   0.483
  0.483   0.484   0.484   0.497   0.508   0.512   0.514   0.525
 19.288  19.334
 --------------------------------------------------------------
 
          Ground-State Mulliken Net Atomic Charges

     Atom                 Charge (a.u.)
  ----------------------------------------
      1 Fe                    2.000001
      2 Fe                    1.999999
  ----------------------------------------
  Sum of atomic charges =     4.000000

 -----------------------------------------------------------------
                    Cartesian Multipole Moments
 -----------------------------------------------------------------
    Charge (ESU x 10^10)
                19.2128
    Dipole Moment (Debye)
         X       0.0001      Y       2.2775      Z      -0.0009
       Tot       2.2775
    Quadrupole Moments (Debye-Ang)
        XX      36.3053     XY      -0.0011     YY     -13.9135
        XZ     -24.1554     YZ       0.0005     ZZ      -2.3574
    Octopole Moments (Debye-Ang^2)
       XXX       0.0004    XXY       4.3037    XYY      -0.0003
       YYY      -5.0120    XXZ      -0.0019    XYZ      -2.8634
       YYZ       0.0008    XZZ       0.0022    YZZ      -0.2795
       ZZZ       0.0004
    Hexadecapole Moments (Debye-Ang^3)
      XXXX     -90.8711   XXXY      -0.0004   XXYY     -37.5075
      XYYY       0.0023   YYYY      -6.1989   XXXZ      -9.8370
      XXYZ       0.0012   XYYZ      16.9648   YYYZ      -0.0016
      XXZZ     -16.0808   XYZZ      -0.0000   YYZZ     -10.3582
      XZZZ      36.9599   YZZZ       0.0002   ZZZZ     -47.5293
 -----------------------------------------------------------------
Archival summary:
1\1\n0045.mhg0\SP\ProcedureUnspecified\6-31G\e2(4+,1)\romitcha\TueMar1902:12:192019TueMar1902:12:192019\0\\#,ProcedureUnspecified,6-31G,\\4,1\Fe\Fe,1,3.55423\\\@

 Total job time:  2.19s(wall), 30.62s(cpu) 
 Tue Mar 19 02:12:19 2019

        *************************************************************
        *                                                           *
        *  Thank you very much for using Q-Chem.  Have a nice day.  *
        *                                                           *
        *************************************************************


Done Job For Fragment 0
calling putenv with: QCSCRATCH=/scratch/romitchak 
calling putenv with: QCTHREADS=16 
Creating input file /scratch/romitchak/1_1_simple.in20190319010853/Frg2.input
using default PutDataFrgm: nothing
calling putenv with: QCSCRATCH=/scratch/romitchak/1_1_simple.in20190319010853/ 
Spawning Job For Fragment 1
n0045.mhg 10.0.22
Q-Chem Developer Version! Running on 10.0.22.*
                  Welcome to Q-Chem
     A Quantum Leap Into The Future Of Chemistry


 Q-Chem 5.1, Q-Chem, Inc., Pleasanton, CA (2018)

 Yihan Shao,  Zhengting Gan,  E. Epifanovsky,  A. T. B. Gilbert,  M. Wormit,  
 J. Kussmann,  A. W. Lange,  A. Behn,  Jia Deng,  Xintian Feng,  D. Ghosh,  
 M. Goldey,  P. R. Horn,  L. D. Jacobson,  I. Kaliman,  T. Kus,  A. Landau,  
 Jie Liu,  E. I. Proynov,  R. M. Richard,  R. P. Steele,  E. J. Sundstrom,  
 H. L. Woodcock III,  P. M. Zimmerman,  D. Zuev,  B. Albrecht,  E. Alguire,  
 S. A. Baeppler,  D. Barton,  Z. Benda,  Y. A. Bernard,  E. J. Berquist,  
 K. B. Bravaya,  H. Burton,  D. Casanova,  Chun-Min Chang,  Yunqing Chen,  
 A. Chien,  K. D. Closser,  M. P. Coons,  S. Coriani,  S. Dasgupta,  
 A. L. Dempwolff,  M. Diedenhofen,  Hainam Do,  R. G. Edgar,  Po-Tung Fang,  
 S. Faraji,  S. Fatehi,  Qingguo Feng,  K. D. Fenk,  J. Fosso-Tande,  
 Qinghui Ge,  A. Ghysels,  G. Gidofalvi,  J. Gomes,  J. Gonthier,  A. Gunina,  
 D. Hait,  M. W. D. Hanson-Heine,  P. H. P. Harbach,  A. W. Hauser,  
 J. E. Herr,  E. G. Hohenstein,  Z. C. Holden,  Kerwin Hui,  B. C. Huynh,  
 T.-C. Jagau,  Hyunjun Ji,  B. Kaduk,  K. Khistyaev,  Jaehoon Kim,  
 P. Klunzinger,  K. Koh,  D. Kosenkov,  L. Koulias,  T. Kowalczyk,  
 C. M. Krauter,  A. Kunitsa,  Ka Un Lao,  A. Laurent,  K. V. Lawler,  
 Joonho Lee,  D. Lefrancois,  S. Lehtola,  D. S. Levine,  Yi-Pei Li,  
 You-Sheng Lin,  Fenglai Liu,  E. Livshits,  A. Luenser,  P. Manohar,  
 E. Mansoor,  S. F. Manzer,  Shan-Ping Mao,  Yuezhi Mao,  N. Mardirossian,  
 A. V. Marenich,  T. Markovich,  L. A. Martinez-Martinez,  S. A. Maurer,  
 N. J. Mayhall,  S. C. McKenzie,  J.-M. Mewes,  A. F. Morrison,  
 J. W. Mullinax,  K. Nanda,  T. S. Nguyen-Beck,  R. Olivares-Amaya,  
 J. A. Parkhill,  T. M. Perrine,  F. Plasser,  P. Pokhilko,  S. Prager,  
 A. Prociuk,  E. Ramos,  D. R. Rehn,  F. Rob,  M. Schneider,  N. Sergueev,  
 S. M. Sharada,  S. Sharma,  D. W. Small,  T. Stauch,  T. Stein,  
 Yu-Chuan Su,  A. J. W. Thom,  A. Tkatchenko,  T. Tsuchimochi,  N. M. Tubman,  
 L. Vogt,  M. L. Vidal,  O. Vydrov,  M. A. Watson,  J. Wenzel,  
 M. de Wergifosse,  T. A. Wesolowski,  A. White,  J. Witte,  A. Yamada,  
 Jun Yang,  K. Yao,  S. Yeganeh,  S. R. Yost,  Zhi-Qiang You,  A. Zech,  
 Igor Ying Zhang,  Xing Zhang,  Yan Zhao,  Ying Zhu,  B. R. Brooks,  
 G. K. L. Chan,  C. J. Cramer,  M. S. Gordon,  W. J. Hehre,  A. Klamt,  
 M. W. Schmidt,  C. D. Sherrill,  D. G. Truhlar,  A. Aspuru-Guzik,  R. Baer,  
 A. T. Bell,  N. A. Besley,  Jeng-Da Chai,  R. A. DiStasio Jr.,  A. Dreuw,  
 B. D. Dunietz,  T. R. Furlani,  Chao-Ping Hsu,  Yousung Jung,  Jing Kong,  
 D. S. Lambrecht,  WanZhen Liang,  C. Ochsenfeld,  V. A. Rassolov,  
 L. V. Slipchenko,  J. E. Subotnik,  T. Van Voorhis,  J. M. Herbert,  
 A. I. Krylov,  P. M. W. Gill,  M. Head-Gordon

 Contributors to earlier versions of Q-Chem not listed above: 
 R. D. Adamson,  B. Austin,  J. Baker,  G. J. O. Beran,  K. Brandhorst,  
 S. T. Brown,  E. F. C. Byrd,  A. K. Chakraborty,  C.-L. Cheng,  
 Siu Hung Chien,  D. M. Chipman,  D. L. Crittenden,  H. Dachsel,  
 R. J. Doerksen,  A. D. Dutoi,  L. Fusti-Molnar,  W. A. Goddard III,  
 A. Golubeva-Zadorozhnaya,  S. R. Gwaltney,  G. Hawkins,  A. Heyden,  
 S. Hirata,  G. Kedziora,  F. J. Keil,  C. Kelley,  Jihan Kim,  R. A. King,  
 R. Z. Khaliullin,  P. P. Korambath,  W. Kurlancheek,  A. M. Lee,  M. S. Lee,  
 S. V. Levchenko,  Ching Yeh Lin,  D. Liotard,  R. C. Lochan,  I. Lotan,  
 P. E. Maslen,  N. Nair,  D. P. O'Neill,  D. Neuhauser,  E. Neuscamman,  
 C. M. Oana,  R. Olson,  B. Peters,  R. Peverati,  P. A. Pieniazek,  
 Y. M. Rhee,  J. Ritchie,  M. A. Rohrdanz,  E. Rosta,  N. J. Russ,  
 H. F. Schaefer III,  N. E. Schultz,  N. Shenvi,  A. C. Simmonett,  A. Sodt,  
 D. Stuck,  K. S. Thanthiriwatte,  V. Vanovschi,  Tao Wang,  A. Warshel,  
 C. F. Williams,  Q. Wu,  X. Xu,  W. Zhang

 Please cite Q-Chem as follows:
 Y. Shao et al., Mol. Phys. 113, 184-215 (2015)
 DOI: 10.1080/00268976.2014.952696

 Q-Chem 5.1.0 for Intel X86 EM64T Linux

 Parts of Q-Chem use Armadillo 8.300.2 (Tropical Shenanigans).
 http://arma.sourceforge.net/

 Q-Chem begins on Tue Mar 19 02:12:20 2019  

Host: n0045.mhg0
0

     Scratch files written to /scratch/romitchak/1_1_simple.in20190319010853//Frg2//

Checking the input file for inconsistencies... 	...done.

--------------------------------------------------------------
User input:
--------------------------------------------------------------
$molecule
-7 1
 7	0.0199385327	-0.9109693283	-1.4862334406
 6	-0.0148995893	-1.7254206259	-2.5586427249
 17	3.1552464195	-1.5821621113	-1.6304643938
 7	2.0540796573	-1.6137042780	1.6894155627
 6	1.3244934248	-2.1603853887	2.6838392229
 7	-3.1419000671	1.1392090143	0.0179731811
 17	-3.1551831021	-1.5819759267	1.6306912114
 7	-2.0540517180	-1.6140454489	-1.6891917116
 7	-1.2252709769	-0.8632836968	-0.9799863805
 6	-1.3244463969	-2.1608579785	-2.6835223613
 17	-0.0000180507	1.7246775838	-0.0001841321
 7	-0.0199158169	-0.9107150878	1.4863558122
 7	1.2252868745	-0.8630874104	0.9800672196
 6	0.0149351314	-1.7250144908	2.5588852280
 7	-4.6249475605	2.7486933754	-0.1313776981
 6	-4.9073551498	1.8177529423	-1.0807406152
 6	-3.9770635597	0.7968341034	-0.9889882271
 7	-3.5518372196	2.3200863378	0.5261282677
 1	0.8888496003	-1.9423999928	-3.1064829837
 1	1.7766253012	-2.8238074074	3.4118229751
 1	-1.7765577673	-2.8244170803	-3.4113930927
 1	-0.8888071347	-1.9419420566	3.1067577115
 1	-5.7470111776	1.9333952708	-1.7601373050
 1	-3.8423197213	-0.1283031936	-1.5282240452
 7	3.1418530742	1.1392643845	-0.0181015537
 6	3.9771283083	0.7968585133	0.9887634508
 7	4.6247932453	2.7488248796	0.1312636900
 7	3.5516585074	2.3202092820	-0.5262012247
 6	4.9073542260	1.8178298554	1.0805272434
 1	3.8424589639	-0.1283071970	1.5279637905
 1	5.7470915765	1.9334480697	1.7598293316
$end
$rem
METHOD		B3LYP
DFT_D		D3_BJ
BASIS		6-31G
SCF_PRINT_FRGM		TRUE
SCF_MAX_CYCLES		1500
GEOM_OPT_MAX_CYCLES		500
DIIS_SEPARATE_ERRVEC		1
!required keywords
JOBTYPE		SP
SYM_IGNORE		TRUE
SUBSYSTEM		TRUE
CHILD_INSTRUCTION		1
SYM_IGNORE		TRUE
PURECART		12
MEM_STATIC		192
MEM_TOTAL		2000
GUI		0
$end
--------------------------------------------------------------
 Adding empirical dispersion correction 
 ----------------------------------------------------------------
 Doing -D3(BJ) with
 s6 =   1.00000
 s8 =   1.98890
 a1 =   0.39810
 a2 =   4.42110
 -D3 energy without 3body term =     -0.0697860720 hartrees
 ----------------------------------------------------------------
             Standard Nuclear Orientation (Angstroms)
    I     Atom           X                Y                Z
 ----------------------------------------------------------------
    1      N       0.0199385327    -0.9109693283    -1.4862334406
    2      C      -0.0148995893    -1.7254206259    -2.5586427249
    3      Cl      3.1552464195    -1.5821621113    -1.6304643938
    4      N       2.0540796573    -1.6137042780     1.6894155627
    5      C       1.3244934248    -2.1603853887     2.6838392229
    6      N      -3.1419000671     1.1392090143     0.0179731811
    7      Cl     -3.1551831021    -1.5819759267     1.6306912114
    8      N      -2.0540517180    -1.6140454489    -1.6891917116
    9      N      -1.2252709769    -0.8632836968    -0.9799863805
   10      C      -1.3244463969    -2.1608579785    -2.6835223613
   11      Cl     -0.0000180507     1.7246775838    -0.0001841321
   12      N      -0.0199158169    -0.9107150878     1.4863558122
   13      N       1.2252868745    -0.8630874104     0.9800672196
   14      C       0.0149351314    -1.7250144908     2.5588852280
   15      N      -4.6249475605     2.7486933754    -0.1313776981
   16      C      -4.9073551498     1.8177529423    -1.0807406152
   17      C      -3.9770635597     0.7968341034    -0.9889882271
   18      N      -3.5518372196     2.3200863378     0.5261282677
   19      H       0.8888496003    -1.9423999928    -3.1064829837
   20      H       1.7766253012    -2.8238074074     3.4118229751
   21      H      -1.7765577673    -2.8244170803    -3.4113930927
   22      H      -0.8888071347    -1.9419420566     3.1067577115
   23      H      -5.7470111776     1.9333952708    -1.7601373050
   24      H      -3.8423197213    -0.1283031936    -1.5282240452
   25      N       3.1418530742     1.1392643845    -0.0181015537
   26      C       3.9771283083     0.7968585133     0.9887634508
   27      N       4.6247932453     2.7488248796     0.1312636900
   28      N       3.5516585074     2.3202092820    -0.5262012247
   29      C       4.9073542260     1.8178298554     1.0805272434
   30      H       3.8424589639    -0.1283071970     1.5279637905
   31      H       5.7470915765     1.9334480697     1.7598293316
 ----------------------------------------------------------------
 Nuclear Repulsion Energy =  2287.6524948151 hartrees
 There are       99 alpha and       99 beta electrons
 Requested basis set is 6-31G
 There are 88 shells and 235 basis functions

 Total QAlloc Memory Limit   2000 MB
 Mega-Array Size       188 MB
 MEM_STATIC part       192 MB
 A cutoff of  1.0D-08 yielded   1758 shell pairs
 There are     15048 function pairs
 
 -------------------------------------------------------
 OpenMP Integral Computing Module                       
 Release: version 1.0, May 2013, Q-Chem Inc. Pittsburgh 
 -------------------------------------------------------
 Integral Job Info:
 Integral job number is                      11
 Integral operator is                         1
 short-range coefficients                     0
 long-range coefficients              100000000
 Omega coefficients                           0
 if combine SR and LR in K                    0
 Integral screening is                        0
 Integral computing path is                   2
 max size of driver memory is            800000
 size of driver memory is                 45569
 size of scratch memory is             14945700
 max col of scratch BK array                289
 max len of scratch array in speh3           22
 max len of scratch index in speh4            8
 max int batch size is                      520
 min int batch size is                       52
 fixed nKL is                                52
 max L of basis functions is                  1
 order of int derivative is                   0
 number of shells is                         88
 number of basis is                         235
 number of cartesian basis is               235
 number of contracted shell pairs          1758
 number of primitive shell pairs           8079
 maxK2 (contraction) of shell pair           36
 max number of K2 of shell pair               1
 max number of CS2 of shell pair            363
 max number of PS2 of shell pair           2178
 mem total for path MDJ                  572906
 -------------------------------------------------------
 Smallest overlap matrix eigenvalue = 2.33E-03

 Scale SEOQF with 1.000000e-02/1.000000e-01/1.000000e-01

 Standard Electronic Orientation quadrupole field applied
 Nucleus-field energy     =     0.0000000008 hartrees
 Guess from superposition of atomic densities
 Warning:  Energy on first SCF cycle will be non-variational
 SAD guess density has 191.000000 electrons

 -----------------------------------------------------------------------
  General SCF calculation program by
  Eric Jon Sundstrom, Paul Horn, Yuezhi Mao, Dmitri Zuev, Alec White,
  David Stuck, Shaama M.S., Shane Yost, Joonho Lee, David Small,
  Daniel Levine, Susi Lehtola, Hugh Burton, Evgeny Epifanovsky
 -----------------------------------------------------------------------
 Exchange:     0.2000 Hartree-Fock + 0.0800 Slater + 0.7200 B88
 Correlation:  0.1900 VWN1RPA + 0.8100 LYP
 Using SG-1 standard quadrature grid
 Dispersion:   Grimme D3
Energy prior to optimization (guess energy) = -2343.925767603360
Begin Timing: Total SCF Calculation
begin iterations for algorithm: DIIS         
the SCF tolerance is set to 1.00e-05
    1   -2343.9257676034      8.69e-03     00000 
    2   -2328.2386135536      3.30e-02     00000 
    3   -2344.3307641156      7.01e-03     00000 
    4   -2344.6815444314      2.01e-03     00000 
    5   -2344.6900383397      2.02e-03     00000 
    6   -2344.7137758851      5.76e-04     00000 
    7   -2344.7159226492      1.85e-04     00000 
    8   -2344.7161375501      6.39e-05     00000 
    9   -2344.7161612659      1.54e-05     00000 
   10   -2344.7161630419      4.68e-06     00000 Convergence criterion met
Timing for Total SCF: 5.00s (wall), 79.76s (cpu)
 
 --------------------------------------------------------------
 
                    Orbital Energies (a.u.)
 --------------------------------------------------------------
 
 Alpha MOs
 -- Occupied --
*******-100.578-100.472 -13.556 -13.556 -13.555 -13.555 -13.517
-13.517 -13.482 -13.482 -13.477 -13.477 -13.455 -13.455  -9.431
 -9.431  -9.396  -9.396  -9.369  -9.369  -9.350  -9.350  -8.504
 -8.504  -8.398  -6.262  -6.262  -6.261  -6.261  -6.261  -6.261
 -6.156  -6.155  -6.155  -0.281  -0.281  -0.221  -0.219  -0.059
 -0.059  -0.003  -0.001   0.004   0.004   0.064   0.065   0.148
  0.148   0.188   0.188   0.212   0.212   0.241   0.246   0.256
  0.270   0.271   0.286   0.286   0.335   0.335   0.352   0.352
  0.359   0.359   0.399   0.403   0.420   0.427   0.459   0.459
  0.529   0.532   0.533   0.533   0.534   0.536   0.537   0.544
  0.578   0.580   0.584   0.586   0.598   0.602   0.602   0.603
  0.604   0.611   0.618   0.619   0.624   0.643   0.645   0.671
  0.706   0.720   0.721
 -- Virtual --
  0.797   0.798   0.821   0.821   0.850   0.851   0.861   0.862
  0.889   0.892   0.910   0.924   0.941   0.943   0.963   0.964
  0.985   0.985   1.037   1.038   1.051   1.052   1.089   1.093
  1.096   1.098   1.147   1.149   1.183   1.185   1.213   1.214
  1.244   1.249   1.259   1.279   1.297   1.297   1.304   1.311
  1.311   1.320   1.321   1.329   1.337   1.344   1.355   1.360
  1.364   1.376   1.380   1.392   1.394   1.399   1.401   1.403
  1.422   1.423   1.448   1.449   1.459   1.462   1.471   1.477
  1.480   1.499   1.508   1.512   1.521   1.529   1.531   1.535
  1.546   1.551   1.560   1.561   1.576   1.577   1.597   1.606
  1.610   1.624   1.630   1.630   1.633   1.636   1.647   1.659
  1.666   1.681   1.683   1.709   1.722   1.730   1.738   1.752
  1.756   1.768   1.772   1.782   1.806   1.808   1.823   1.824
  1.831   1.834   1.854   1.862   1.871   1.895   1.911   1.918
  1.937   1.944   1.969   1.984   2.035   2.036   2.069   2.072
  2.084   2.084   2.120   2.137   2.189   2.224   2.277   2.279
  2.381   2.381   2.417   2.449   2.457   2.494   2.563   2.585
 --------------------------------------------------------------
 
          Ground-State Mulliken Net Atomic Charges

     Atom                 Charge (a.u.)
  ----------------------------------------
      1 N                    -0.156692
      2 C                    -0.057043
      3 Cl                   -0.977464
      4 N                    -0.373166
      5 C                    -0.124793
      6 N                    -0.086871
      7 Cl                   -0.977464
      8 N                    -0.373145
      9 N                    -0.002404
     10 C                    -0.124804
     11 Cl                   -0.958629
     12 N                    -0.156679
     13 N                    -0.002411
     14 C                    -0.057031
     15 N                    -0.502090
     16 C                    -0.144328
     17 C                    -0.010606
     18 N                    -0.243197
     19 H                    -0.026832
     20 H                    -0.220986
     21 H                    -0.220988
     22 H                    -0.026833
     23 H                    -0.182264
     24 H                     0.088041
     25 N                    -0.086892
     26 C                    -0.010603
     27 N                    -0.502102
     28 N                    -0.243188
     29 C                    -0.144320
     30 H                     0.088052
     31 H                    -0.182269
  ----------------------------------------
  Sum of atomic charges =    -7.000000

 -----------------------------------------------------------------
                    Cartesian Multipole Moments
 -----------------------------------------------------------------
    Charge (ESU x 10^10)
               -33.6224
    Dipole Moment (Debye)
         X       0.0001      Y      -3.6962      Z      -0.0005
       Tot       3.6962
    Quadrupole Moments (Debye-Ang)
        XX    -519.8079     XY      -0.0001     YY    -319.7645
        XZ      11.3995     YZ       0.0010     ZZ    -260.0843
    Octopole Moments (Debye-Ang^2)
       XXX       0.0211    XXY    -339.4328    XYY      -0.0114
       YYY     -92.5898    XXZ      -0.0017    XYZ     -42.4083
       YYZ       0.0216    XZZ       0.0063    YZZ     144.0992
       ZZZ      -0.0369
    Hexadecapole Moments (Debye-Ang^3)
      XXXX  -15730.8140   XXXY       0.0577   XXYY   -4032.5768
      XYYY      -0.0778   YYYY   -4287.1108   XXXZ    -345.5331
      XXYZ       0.0236   XYYZ     -93.0887   YYYZ      -0.0445
      XXZZ   -2597.8279   XYZZ       0.0004   YYZZ   -1371.0265
      XZZZ    -315.3493   YZZZ       0.0319   ZZZZ   -3178.2225
 -----------------------------------------------------------------
Archival summary:
1\1\n0045.mhg0\SP\ProcedureUnspecified\6-31G\l31288(7-,1)\romitcha\TueMar1902:12:262019TueMar1902:12:262019\0\\#,ProcedureUnspecified,6-31G,\\-7,1\Cl\N,1,3.02579\N,2,1.34503,1,77.1828\N,3,1.3242,2,110.962,1,156.046,0\C,2,1.34707,1,156.559,3,103.964,0\H,5,1.07888,2,120.277,1,84.5758,0\C,4,1.34908,3,106.622,2,-0.104065,0\H,7,1.08375,4,121.17,3,-179.98,0\H,4,2.3305,3,94.6929,2,-141.634,0\C,9,1.07926,4,132.593,3,-5.0926,0\N,10,1.35229,9,120.795,4,-16.1104,0\N,11,1.34935,10,108.323,9,-178.921,0\N,12,1.32951,11,109.944,10,-0.270497,0\C,13,1.3593,12,106.996,11,0.0812832,0\H,14,1.08627,13,121.635,12,-179.94,0\Cl,6,2.72854,5,113.238,2,22.9195,0\N,2,2.7455,1,63.0329,3,-101.168,0\N,17,1.3242,2,138.254,1,-164.971,0\N,17,1.34504,2,86.0478,1,77.5701,0\C,19,1.34708,17,107.286,2,140.642,0\H,20,1.07888,19,120.278,17,-177.741,0\C,18,1.34909,17,106.623,2,-108.668,0\H,22,1.08375,18,121.17,17,-179.98,0\H,18,2.3304,17,94.6972,2,109.792,0\C,24,1.07926,18,132.591,17,-5.0651,0\N,25,1.3523,24,120.795,18,-16.1291,0\N,26,1.34935,25,108.323,24,-178.924,0\N,27,1.32951,26,109.943,25,-0.270895,0\C,28,1.3593,27,106.997,26,0.0816035,0\H,29,1.08627,28,121.635,27,-179.943,0\Cl,21,2.72852,20,113.238,19,22.9195,0\\\@

 Total job time:  6.34s(wall), 99.49s(cpu) 
 Tue Mar 19 02:12:26 2019

        *************************************************************
        *                                                           *
        *  Thank you very much for using Q-Chem.  Have a nice day.  *
        *                                                           *
        *************************************************************


Done Job For Fragment 1
calling putenv with: QCSCRATCH=/scratch/romitchak 
calling putenv with: QCTHREADS=16 
 Serial SCFMI time:   CPU 3.45 s  wall 8.82 s

 -----------------------------------------------------------------------
  General SCF calculation program by
  Eric Jon Sundstrom, Paul Horn, Yuezhi Mao, Dmitri Zuev, Alec White,
  David Stuck, Shaama M.S., Shane Yost, Joonho Lee, David Small,
  Daniel Levine, Susi Lehtola, Hugh Burton, Evgeny Epifanovsky
 -----------------------------------------------------------------------
 Exchange:     0.2000 Hartree-Fock + 0.0800 Slater + 0.7200 B88
 Correlation:  0.1900 VWN1RPA + 0.8100 LYP
 Using SG-1 standard quadrature grid
 Dispersion:   Grimme D3
 using 16 threads for integral computing
 -------------------------------------------------------
 OpenMP Integral computing Module                
 Release: version 2.0, May 2017, Q-Chem Inc. Pleasanton 
 -------------------------------------------------------
 -------------------------------------------------------
 OpenMP BLAS3 based DFT computing Module                
 Release: version 1.0, May 2013, Q-Chem Inc. Pittsburgh 
 -------------------------------------------------------
 A restricted SCF calculation will be
 performed using DIIS
 SCF converges when DIIS error is below 1.0e-08
 ---------------------------------------
  Cycle       Energy         DIIS error
 ---------------------------------------
    1   -4873.1002310238      6.49e-03  
    2   -4854.9286688520      3.79e-02  
    3   -4873.5591928389      7.06e-03  
    4   -4873.9482836561      2.96e-03  
    5   -4874.0372198689      1.41e-03  
    6   -4874.0733474492      5.92e-04  
    7   -4874.0999655130      4.06e-04  
    8   -4874.1172265503      3.41e-04  
    9   -4874.1330255243      3.07e-04  
   10   -4874.1636547237      2.80e-04  
   11   -4874.1768202496      2.09e-04  
   12   -4874.1791519132      2.79e-04  
   13   -4874.1866903458      2.08e-04  
   14   -4874.1900814267      1.58e-04  
   15   -4874.1930663641      9.04e-05  
   16   -4874.1944913165      5.61e-05  
   17   -4874.1953144477      5.59e-05  
   18   -4874.1955853370      3.84e-05  
   19   -4874.1956992100      1.94e-05  
   20   -4874.1957316178      1.15e-05  
   21   -4874.1957406265      6.88e-06  
   22   -4874.1957425765      5.40e-06  
   23   -4874.1957430780      1.90e-06  
   24   -4874.1957432257      6.17e-07  
   25   -4874.1957432663      5.73e-07  
   26   -4874.1957432834      3.79e-07  
   27   -4874.1957432926      2.68e-07  
   28   -4874.1957433016      1.64e-07  
   29   -4874.1957433050      1.06e-07  
   30   -4874.1957433059      4.96e-08  
   31   -4874.1957433062      6.58e-08  
   32   -4874.1957433064      2.64e-08  
   33   -4874.1957433064      1.14e-08  
   34   -4874.1957433064      8.86e-09  Convergence criterion met
 ---------------------------------------
 SCF time:   CPU 1193.74s  wall 75.00s 
 SCF   energy in the final basis set =    -4874.1957433064
 Total energy in the final basis set =    -4874.1957433064
 
 --------------------------------------------------------------
 
                    Orbital Energies (a.u.)
 --------------------------------------------------------------
 
 Alpha MOs
 -- Occupied --
*******-255.707-101.129-101.106-101.106 -29.666 -29.666 -25.531
-25.531 -25.529 -25.529 -25.528 -25.528 -14.073 -14.073 -14.053
-14.053 -14.035 -14.035 -14.027 -14.027 -14.024 -14.024 -14.007
-14.007  -9.895  -9.895  -9.894  -9.894  -9.872  -9.872  -9.867
 -9.867  -9.062  -9.036  -9.036  -6.821  -6.819  -6.816  -6.795
 -6.795  -6.792  -6.792  -6.792  -6.792  -3.062  -3.062  -1.838
 -1.838  -1.832  -1.832  -1.829  -1.829  -0.786  -0.783  -0.748
 -0.748  -0.570  -0.567  -0.534  -0.534  -0.486  -0.484  -0.453
 -0.453  -0.423  -0.387  -0.386  -0.308  -0.302  -0.276  -0.273
 -0.272  -0.271  -0.243  -0.243  -0.212  -0.204  -0.178  -0.177
 -0.145  -0.138  -0.135  -0.131  -0.110  -0.109  -0.104  -0.104
 -0.079  -0.055  -0.050  -0.031  -0.018  -0.008   0.013   0.018
  0.024   0.030   0.032   0.035   0.036   0.040   0.042   0.042
  0.050   0.056   0.057   0.061   0.069   0.075   0.075   0.079
  0.080   0.083   0.085   0.086   0.087   0.132   0.133   0.136
  0.142   0.146   0.149
 -- Virtual --
  0.291   0.292   0.326   0.329   0.337   0.338   0.360   0.361
  0.364   0.366   0.373   0.375   0.390   0.390   0.401   0.408
  0.413   0.419   0.423   0.424   0.439   0.446   0.457   0.474
  0.483   0.499   0.513   0.516   0.533   0.534   0.539   0.552
  0.554   0.560   0.563   0.566   0.585   0.588   0.598   0.600
  0.616   0.618   0.689   0.730   0.735   0.739   0.757   0.770
  0.780   0.784   0.797   0.806   0.808   0.816   0.822   0.826
  0.842   0.844   0.857   0.859   0.866   0.876   0.889   0.897
  0.898   0.909   0.916   0.920   0.923   0.926   0.928   0.936
  0.943   0.951   0.962   0.971   0.973   0.990   0.991   0.999
  1.018   1.032   1.038   1.051   1.070   1.076   1.082   1.086
  1.092   1.099   1.103   1.108   1.110   1.119   1.139   1.139
  1.145   1.147   1.155   1.161   1.164   1.174   1.181   1.187
  1.189   1.195   1.205   1.210   1.222   1.234   1.239   1.247
  1.248   1.253   1.283   1.289   1.302   1.310   1.319   1.322
  1.335   1.354   1.360   1.368   1.384   1.384   1.396   1.408
  1.434   1.435   1.459   1.464   1.509   1.520   1.523   1.563
  1.593   1.595   1.607   1.617   1.626   1.641   1.684   1.702
  1.716   1.727   1.798   1.860   1.908   1.909   1.921   1.937
  1.968   1.972   2.020   2.021   2.061   2.088   2.127   2.127
  2.211   2.218   2.276   2.294   2.409   2.440   2.627   2.652
 20.827  20.892
 --------------------------------------------------------------
 
          Ground-State Mulliken Net Atomic Charges

     Atom                 Charge (a.u.)
  ----------------------------------------
      1 Fe                    0.950117
      2 Fe                    0.950130
      3 N                    -0.424124
      4 C                     0.042579
      5 Cl                   -0.689797
      6 N                    -0.234497
      7 C                    -0.073870
      8 N                    -0.483911
      9 Cl                   -0.689793
     10 N                    -0.234481
     11 N                    -0.239806
     12 C                    -0.073878
     13 Cl                   -0.494153
     14 N                    -0.424144
     15 N                    -0.239782
     16 C                     0.042585
     17 N                    -0.359831
     18 C                    -0.106168
     19 C                     0.060011
     20 N                    -0.111807
     21 H                     0.154401
     22 H                     0.062521
     23 H                     0.062520
     24 H                     0.154403
     25 H                     0.035255
     26 H                     0.165983
     27 N                    -0.483922
     28 C                     0.060007
     29 N                    -0.359841
     30 N                    -0.111801
     31 C                    -0.106163
     32 H                     0.165998
     33 H                     0.035256
  ----------------------------------------
  Sum of atomic charges =    -3.000000

 -----------------------------------------------------------------
                    Cartesian Multipole Moments
 -----------------------------------------------------------------
    Charge (ESU x 10^10)
               -14.4096
    Dipole Moment (Debye)
         X       0.0004      Y      -6.3932      Z      -0.0004
       Tot       6.3932
    Quadrupole Moments (Debye-Ang)
        XX    -373.9891     XY       0.0003     YY    -270.1401
        XZ      24.3312     YZ       0.0016     ZZ    -210.1483
    Octopole Moments (Debye-Ang^2)
       XXX       0.0257    XXY    -195.0779    XYY      -0.0110
       YYY    -123.1336    XXZ      -0.0039    XYZ     -26.2352
       YYZ       0.0052    XZZ       0.0060    YZZ      22.2477
       ZZZ      -0.0085
    Hexadecapole Moments (Debye-Ang^3)
      XXXX  -12206.9219   XXXY       0.0646   XXYY   -3226.3882
      XYYY      -0.0334   YYYY   -3668.2585   XXXZ     315.3644
      XXYZ       0.0074   XYYZ      87.7565   YYYZ       0.0125
      XXZZ   -2149.3423   XYZZ      -0.0078   YYZZ    -979.2970
      XZZZ     -17.6220   YZZZ      -0.0006   ZZZZ   -2541.7320
 -----------------------------------------------------------------
 Calculating analytic gradient of the SCF energy
 Gradient of SCF Energy
            1           2           3           4           5           6
    1   0.0012800  -0.0009907  -0.0267464  -0.0116453   0.0004013  -0.0234374
    2   0.0267437   0.0267471  -0.0163208   0.0062846  -0.0034587   0.0048080
    3  -0.0416187   0.0418051   0.0009838   0.0122787   0.0072918   0.0002107
            7           8           9          10          11          12
    1  -0.0003790  -0.0178275   0.0000344   0.0219919   0.0075234   0.0002524
    2   0.0119158   0.0156077  -0.0034780   0.0049029  -0.0243724   0.0124717
    3  -0.0190076  -0.0091629  -0.0069377  -0.0003842  -0.0364750   0.0170906
           13          14          15          16          17          18
    1   0.0003037   0.0271452  -0.0066531   0.0092180   0.0172097   0.0126183
    2  -0.0129161  -0.0161419  -0.0242799   0.0068744  -0.0176984   0.0053726
    3   0.0002280  -0.0005748   0.0373308  -0.0137940   0.0018990   0.0159851
           19          20          21          22          23          24
    1   0.0018447  -0.0181122   0.0028091   0.0021725  -0.0016183  -0.0023018
    2   0.0125890  -0.0133661   0.0005974  -0.0020504  -0.0020415   0.0005981
    3   0.0106722  -0.0274054  -0.0014756   0.0027129  -0.0021819   0.0019935
           25          26          27          28          29          30
    1  -0.0028178   0.0004009   0.0182120  -0.0016417  -0.0173980   0.0183462
    2   0.0007736  -0.0017611   0.0156652   0.0121130  -0.0175469  -0.0135024
    3  -0.0019558  -0.0012731   0.0093480  -0.0110337  -0.0017878   0.0274164
           31          32          33
    1  -0.0136753   0.0002257   0.0032550
    2   0.0058562  -0.0017596   0.0007730
    3  -0.0165391   0.0019222   0.0024387
 Max gradient component =       4.181E-02
 RMS gradient           =       1.439E-02
 Gradient time:  CPU 150.55 s  wall 13.17 s
 Geometry Optimization Parameters
   NAtoms,    NIC,     NZ,  NCons,   NDum,   NFix, NCnnct, MaxDiis
       33     287       0       0       0       0       0       0


** GEOMETRY OPTIMIZATION IN DELOCALIZED INTERNAL COORDINATES **
   Searching for a Minimum

   Optimization Cycle:   1

                       Coordinates (Angstroms)
     ATOM                X               Y               Z
      1  Fe        1.6017699422    0.1185078526   -0.7697776683
      2  Fe       -1.6017616065    0.1185769768    0.7696864604
      3  N         0.0199385327   -0.9109693283   -1.4862334406
      4  C        -0.0148995893   -1.7254206259   -2.5586427249
      5  Cl        3.1552464195   -1.5821621113   -1.6304643938
      6  N         2.0540796573   -1.6137042780    1.6894155627
      7  C         1.3244934248   -2.1603853887    2.6838392229
      8  N        -3.1419000671    1.1392090143    0.0179731811
      9  Cl       -3.1551831021   -1.5819759267    1.6306912114
     10  N        -2.0540517180   -1.6140454489   -1.6891917116
     11  N        -1.2252709769   -0.8632836968   -0.9799863805
     12  C        -1.3244463969   -2.1608579785   -2.6835223613
     13  Cl       -0.0000180507    1.7246775838   -0.0001841321
     14  N        -0.0199158169   -0.9107150878    1.4863558122
     15  N         1.2252868745   -0.8630874104    0.9800672196
     16  C         0.0149351314   -1.7250144908    2.5588852280
     17  N        -4.6249475605    2.7486933754   -0.1313776981
     18  C        -4.9073551498    1.8177529423   -1.0807406152
     19  C        -3.9770635597    0.7968341034   -0.9889882271
     20  N        -3.5518372196    2.3200863378    0.5261282677
     21  H         0.8888496003   -1.9423999928   -3.1064829837
     22  H         1.7766253012   -2.8238074074    3.4118229751
     23  H        -1.7765577673   -2.8244170803   -3.4113930927
     24  H        -0.8888071347   -1.9419420566    3.1067577115
     25  H        -5.7470111776    1.9333952708   -1.7601373050
     26  H        -3.8423197213   -0.1283031936   -1.5282240452
     27  N         3.1418530742    1.1392643845   -0.0181015537
     28  C         3.9771283083    0.7968585133    0.9887634508
     29  N         4.6247932453    2.7488248796    0.1312636900
     30  N         3.5516585074    2.3202092820   -0.5262012247
     31  C         4.9073542260    1.8178298554    1.0805272434
     32  H         3.8424589639   -0.1283071970    1.5279637905
     33  H         5.7470915765    1.9334480697    1.7598293316
   Point Group: c1    Number of degrees of freedom:    93


   Energy is  -4874.195743306


 Attempting to Generate Delocalized Internal Coordinates

 93 Hessian modes will be used to form the next step
  Hessian Eigenvalues:
     0.002015    0.002015    0.006497    0.006689    0.008419    0.008419
     0.008955    0.011111    0.011397    0.011829    0.018484    0.018484
     0.022357    0.022357    0.022481    0.022483    0.023029    0.023029
     0.023399    0.023399    0.023749    0.023750    0.023864    0.023865
     0.048956    0.063133    0.088412    0.093297    0.101121    0.101122
     0.114392    0.125386    0.128158    0.135914    0.143245    0.143544
     0.149043    0.152752    0.152755    0.155019    0.159345    0.159805
     0.159810    0.159974    0.159974    0.159998    0.159998    0.160000
     0.160000    0.161575    0.168500    0.173824    0.186362    0.220547
     0.222731    0.227168    0.227168    0.228320    0.229357    0.246957
     0.247107    0.247118    0.247118    0.249568    0.249570    0.352475
     0.352477    0.355451    0.355452    0.360834    0.360838    0.361306
     0.361306    0.416221    0.431978    0.448716    0.448723    0.468940
     0.480456    0.480459    0.484357    0.508088    0.524237    0.530024
     0.530027    0.540292    0.540292    0.549148    0.551306    0.579306
     0.579311    0.588559    0.589506

 Minimum Search - Taking Simple RFO Step
 Searching for Lamda that Minimizes Along All modes
 Value Taken    Lamda =  -0.02624306
 Calculated Step too Large.  Step scaled by  0.855241
 Step Taken.  Stepsize is  0.300000

                             Maximum     Tolerance    Cnvgd?
         Gradient           0.049046      0.000300      NO
         Displacement       0.094256      0.001200      NO
         Energy change     *********      0.000001      NO


 New Cartesian Coordinates Obtained by Inverse Iteration

 Displacement from previous Coordinates is:  0.441048
 Adding empirical dispersion correction 
 ----------------------------------------------------------------
 Doing -D3(BJ) with
 s6 =   1.00000
 s8 =   1.98890
 a1 =   0.39810
 a2 =   4.42110
 -D3 energy without 3body term =     -0.1058227465 hartrees
 ----------------------------------------------------------------
             Standard Nuclear Orientation (Angstroms)
    I     Atom           X                Y                Z
 ----------------------------------------------------------------
    1      Fe      1.6002988762     0.1112098949    -0.7387364159
    2      Fe     -1.6066788333     0.1050245843     0.7360527618
    3      N       0.0407845542    -0.8898611198    -1.4733281553
    4      C       0.0185120457    -1.7058335165    -2.5600953286
    5      Cl      3.1466101222    -1.5424719461    -1.6973366486
    6      N       2.0576276282    -1.5826624623     1.7112194313
    7      C       1.3114630996    -2.1260132701     2.7154273848
    8      N      -3.1355496768     1.1144017299     0.0148534739
    9      Cl     -3.1517826738    -1.5542051668     1.6883203139
   10      N      -2.0490222333    -1.5981475963    -1.7095425987
   11      N      -1.2232455090    -0.8436243218    -0.9722883035
   12      C      -1.2971985781    -2.1406694832    -2.7091802363
   13      Cl     -0.0067191882     1.7479325660    -0.0016191360
   14      N      -0.0395885106    -0.8913314746     1.4735684205
   15      N       1.2238151050    -0.8381100686     0.9711255401
   16      C      -0.0078249645    -1.7043292718     2.5635580183
   17      N      -4.6401556964     2.7271530776    -0.1083544467
   18      C      -4.9269294803     1.7906660768    -1.0723771231
   19      C      -3.9853248522     0.7695991125    -0.9931945978
   20      N      -3.5421752160     2.3040491904     0.5515939060
   21      H       0.9251623460    -1.9266507926    -3.0945694886
   22      H       1.7535861531    -2.7792433733     3.4517198781
   23      H      -1.7357738718    -2.7972310553    -3.4456489098
   24      H      -0.9141849435    -1.9320639399     3.0960029936
   25      H      -5.7699663517     1.9020371696    -1.7415204065
   26      H      -3.8514237022    -0.1505806410    -1.5358811421
   27      N       3.1263939900     1.1204465736    -0.0164862350
   28      C       3.9717241002     0.7650770775     0.9908753715
   29      N       4.6447437283     2.7183791455     0.1139475506
   30      N       3.5412418355     2.3099268457    -0.5470350401
   31      C       4.9249599225     1.7746037182     1.0732668141
   32      H       3.8266326125    -0.1578144177     1.5255919473
   33      H       5.7702043334     1.8737068970     1.7403912074
 ----------------------------------------------------------------
 Molecular Point Group                 C1    NOp =  1
 Largest Abelian Subgroup              C1    NOp =  1
 Nuclear Repulsion Energy =  3968.9059773303 hartrees
 There are      123 alpha and      123 beta electrons
 Applying Cartesian multipole field
    Component          Value
    ---------          -----
     (2,0,0)        1.00000E-12
     (0,2,0)        2.00000E-11
     (0,0,2)       -3.00000E-11
 Nucleus-field energy     =    -0.0000000037 hartrees
 Requested basis set is 6-31G
 There are 102 shells and 293 basis functions
 A cutoff of  1.0D-11 yielded   3179 shell pairs
 There are     31204 function pairs
 Smallest overlap matrix eigenvalue = 1.75E-03
 Read the previous MOs as SCF guess

 -----------------------------------------------------------------------
  General SCF calculation program by
  Eric Jon Sundstrom, Paul Horn, Yuezhi Mao, Dmitri Zuev, Alec White,
  David Stuck, Shaama M.S., Shane Yost, Joonho Lee, David Small,
  Daniel Levine, Susi Lehtola, Hugh Burton, Evgeny Epifanovsky
 -----------------------------------------------------------------------
 Exchange:     0.2000 Hartree-Fock + 0.0800 Slater + 0.7200 B88
 Correlation:  0.1900 VWN1RPA + 0.8100 LYP
 Using SG-1 standard quadrature grid
 Dispersion:   Grimme D3
 using 16 threads for integral computing
 -------------------------------------------------------
 OpenMP Integral computing Module                
 Release: version 2.0, May 2017, Q-Chem Inc. Pleasanton 
 -------------------------------------------------------
 -------------------------------------------------------
 OpenMP BLAS3 based DFT computing Module                
 Release: version 1.0, May 2013, Q-Chem Inc. Pittsburgh 
 -------------------------------------------------------
 A restricted SCF calculation will be
 performed using DIIS
 SCF converges when DIIS error is below 1.0e-08
 ---------------------------------------
  Cycle       Energy         DIIS error
 ---------------------------------------
    1   -4874.2075611332      4.92e-04  
    2   -4874.2121423824      1.67e-04  
    3   -4874.2117275290      2.71e-04  
    4   -4874.2124799260      5.23e-05  
    5   -4874.2125018981      3.10e-05  
    6   -4874.2125093757      1.24e-05  
    7   -4874.2125115466      6.13e-06  
    8   -4874.2125125478      2.94e-06  
    9   -4874.2125134332      3.02e-06  
   10   -4874.2125141071      1.95e-06  
   11   -4874.2125146331      1.81e-06  
   12   -4874.2125148594      7.01e-07  
   13   -4874.2125149218      4.62e-07  
   14   -4874.2125149585      3.81e-07  
   15   -4874.2125149793      2.58e-07  
   16   -4874.2125149944      1.50e-07  
   17   -4874.2125149990      9.59e-08  
   18   -4874.2125150000      6.42e-08  
   19   -4874.2125150002      3.49e-08  
   20   -4874.2125150002      1.40e-08  
   21   -4874.2125150003      5.53e-09  Convergence criterion met
 ---------------------------------------
 SCF time:   CPU 736.99s  wall 46.00s 
 SCF   energy in the final basis set =    -4874.2125150003
 Total energy in the final basis set =    -4874.2125150003
 
 --------------------------------------------------------------
 
                    Orbital Energies (a.u.)
 --------------------------------------------------------------
 
 Alpha MOs
 -- Occupied --
*******-255.708-101.129-101.108-101.108 -29.668 -29.667 -25.533
-25.533 -25.531 -25.531 -25.530 -25.530 -14.077 -14.076 -14.055
-14.054 -14.038 -14.038 -14.031 -14.031 -14.026 -14.025 -14.010
-14.009  -9.898  -9.898  -9.896  -9.896  -9.875  -9.874  -9.870
 -9.869  -9.062  -9.038  -9.038  -6.820  -6.819  -6.816  -6.797
 -6.797  -6.794  -6.794  -6.794  -6.794  -3.064  -3.063  -1.840
 -1.839  -1.834  -1.834  -1.830  -1.830  -0.774  -0.770  -0.734
 -0.734  -0.564  -0.560  -0.526  -0.526  -0.484  -0.481  -0.451
 -0.450  -0.421  -0.389  -0.389  -0.305  -0.299  -0.277  -0.273
 -0.269  -0.268  -0.244  -0.243  -0.211  -0.202  -0.176  -0.175
 -0.143  -0.137  -0.135  -0.125  -0.110  -0.109  -0.098  -0.097
 -0.081  -0.057  -0.054  -0.032  -0.019  -0.013   0.014   0.018
  0.024   0.030   0.031   0.034   0.035   0.040   0.041   0.042
  0.048   0.054   0.058   0.061   0.069   0.072   0.073   0.075
  0.076   0.083   0.085   0.086   0.087   0.131   0.132   0.136
  0.142   0.146   0.148
 -- Virtual --
  0.293   0.294   0.320   0.329   0.333   0.336   0.354   0.355
  0.361   0.365   0.376   0.377   0.387   0.387   0.402   0.409
  0.413   0.419   0.423   0.425   0.439   0.448   0.457   0.475
  0.481   0.499   0.512   0.515   0.528   0.531   0.536   0.545
  0.546   0.555   0.555   0.563   0.578   0.579   0.591   0.598
  0.608   0.610   0.682   0.719   0.729   0.730   0.745   0.762
  0.768   0.774   0.794   0.805   0.806   0.819   0.825   0.829
  0.841   0.842   0.859   0.861   0.868   0.875   0.887   0.896
  0.898   0.911   0.914   0.915   0.923   0.924   0.927   0.941
  0.943   0.952   0.959   0.965   0.969   0.989   0.995   0.998
  1.020   1.031   1.036   1.052   1.068   1.074   1.082   1.085
  1.091   1.102   1.104   1.105   1.109   1.116   1.135   1.140
  1.146   1.146   1.158   1.162   1.165   1.178   1.182   1.188
  1.191   1.196   1.205   1.208   1.225   1.233   1.242   1.251
  1.252   1.256   1.287   1.289   1.305   1.313   1.321   1.323
  1.335   1.353   1.358   1.366   1.385   1.387   1.396   1.409
  1.435   1.438   1.462   1.466   1.514   1.523   1.530   1.564
  1.597   1.603   1.615   1.619   1.629   1.645   1.695   1.709
  1.727   1.733   1.807   1.861   1.903   1.906   1.923   1.935
  1.963   1.972   2.018   2.020   2.062   2.095   2.132   2.134
  2.222   2.237   2.300   2.309   2.419   2.437   2.648   2.665
 20.828  20.891
 --------------------------------------------------------------
 
          Ground-State Mulliken Net Atomic Charges

     Atom                 Charge (a.u.)
  ----------------------------------------
      1 Fe                    0.960176
      2 Fe                    0.959583
      3 N                    -0.431427
      4 C                     0.048217
      5 Cl                   -0.687364
      6 N                    -0.242129
      7 C                    -0.070916
      8 N                    -0.491568
      9 Cl                   -0.687867
     10 N                    -0.240780
     11 N                    -0.246257
     12 C                    -0.073031
     13 Cl                   -0.495305
     14 N                    -0.429002
     15 N                    -0.245973
     16 C                     0.045580
     17 N                    -0.367517
     18 C                    -0.101951
     19 C                     0.066184
     20 N                    -0.109976
     21 H                     0.156737
     22 H                     0.064110
     23 H                     0.063627
     24 H                     0.156335
     25 H                     0.036948
     26 H                     0.166327
     27 N                    -0.492741
     28 C                     0.065458
     29 N                    -0.368895
     30 N                    -0.110328
     31 C                    -0.101593
     32 H                     0.168450
     33 H                     0.036887
  ----------------------------------------
  Sum of atomic charges =    -3.000000

 -----------------------------------------------------------------
                    Cartesian Multipole Moments
 -----------------------------------------------------------------
    Charge (ESU x 10^10)
               -14.4096
    Dipole Moment (Debye)
         X      -0.0131      Y      -6.6816      Z       0.0049
       Tot       6.6817
    Quadrupole Moments (Debye-Ang)
        XX    -373.8975     XY      -0.2929     YY    -268.6664
        XZ      25.9202     YZ      -0.0856     ZZ    -211.7122
    Octopole Moments (Debye-Ang^2)
       XXX      -0.5251    XXY    -198.2458    XYY       0.7672
       YYY    -124.6350    XXZ      -0.2518    XYZ     -25.2572
       YYZ       0.0245    XZZ      -0.0110    YZZ      20.9714
       ZZZ       0.3856
    Hexadecapole Moments (Debye-Ang^3)
      XXXX  -12228.5823   XXXY      -5.0034   XXYY   -3198.2050
      XYYY      -0.5460   YYYY   -3584.1476   XXXZ     364.9501
      XXYZ      -0.8450   XYYZ      95.9312   YYYZ      -0.5153
      XXZZ   -2168.9146   XYZZ      -0.2301   YYZZ    -972.9197
      XZZZ      14.8668   YZZZ      -0.8312   ZZZZ   -2588.3391
 -----------------------------------------------------------------
 Calculating analytic gradient of the SCF energy
 Gradient of SCF Energy
            1           2           3           4           5           6
    1   0.0024289  -0.0021838  -0.0141656   0.0018117  -0.0003488  -0.0085589
    2   0.0219321   0.0221750  -0.0072213   0.0013450  -0.0030007   0.0024860
    3  -0.0329260   0.0329280   0.0057710   0.0024100   0.0054282  -0.0017053
            7           8           9          10          11          12
    1   0.0036816  -0.0077899   0.0003145   0.0084982   0.0029483  -0.0033250
    2   0.0007231   0.0077123  -0.0030140   0.0027106  -0.0106927   0.0012057
    3  -0.0024227  -0.0053198  -0.0053160   0.0015181  -0.0153532   0.0022098
           13          14          15          16          17          18
    1   0.0001771   0.0137019  -0.0025344  -0.0023851   0.0090202   0.0000943
    2  -0.0101883  -0.0063716  -0.0106586   0.0011075  -0.0071442   0.0020437
    3   0.0001398  -0.0057032   0.0158145  -0.0032548   0.0025168   0.0013245
           19          20          21          22          23          24
    1   0.0007802  -0.0038720   0.0004414   0.0002004  -0.0000864  -0.0001778
    2  -0.0008141  -0.0020670   0.0001468  -0.0003664  -0.0004839   0.0001278
    3  -0.0000742  -0.0056718  -0.0006483   0.0007113  -0.0006536   0.0007591
           25          26          27          28          29          30
    1  -0.0005528  -0.0004519   0.0084186  -0.0012873  -0.0093532   0.0032042
    2  -0.0002336  -0.0002308   0.0072406  -0.0004523  -0.0075186  -0.0019912
    3  -0.0006372  -0.0004494   0.0051713  -0.0000608  -0.0023083   0.0055124
           31          32          33
    1   0.0002845   0.0005042   0.0005628
    2   0.0020718  -0.0002023  -0.0003762
    3  -0.0009513   0.0005820   0.0006589
 Max gradient component =       3.293E-02
 RMS gradient           =       7.481E-03
 Gradient time:  CPU 143.63 s  wall 12.61 s
 Geometry Optimization Parameters
   NAtoms,    NIC,     NZ,  NCons,   NDum,   NFix, NCnnct, MaxDiis
       33     287       0       0       0       0       0       0

 Cartesian Hessian Update
 Hessian Updated using BFGS Update


** GEOMETRY OPTIMIZATION IN DELOCALIZED INTERNAL COORDINATES **
   Searching for a Minimum

   Optimization Cycle:   2

                       Coordinates (Angstroms)
     ATOM                X               Y               Z
      1  Fe        1.6002988762    0.1112098949   -0.7387364159
      2  Fe       -1.6066788333    0.1050245843    0.7360527618
      3  N         0.0407845542   -0.8898611198   -1.4733281553
      4  C         0.0185120457   -1.7058335165   -2.5600953286
      5  Cl        3.1466101222   -1.5424719461   -1.6973366486
      6  N         2.0576276282   -1.5826624623    1.7112194313
      7  C         1.3114630996   -2.1260132701    2.7154273848
      8  N        -3.1355496768    1.1144017299    0.0148534739
      9  Cl       -3.1517826738   -1.5542051668    1.6883203139
     10  N        -2.0490222333   -1.5981475963   -1.7095425987
     11  N        -1.2232455090   -0.8436243218   -0.9722883035
     12  C        -1.2971985781   -2.1406694832   -2.7091802363
     13  Cl       -0.0067191882    1.7479325660   -0.0016191360
     14  N        -0.0395885106   -0.8913314746    1.4735684205
     15  N         1.2238151050   -0.8381100686    0.9711255401
     16  C        -0.0078249645   -1.7043292718    2.5635580183
     17  N        -4.6401556964    2.7271530776   -0.1083544467
     18  C        -4.9269294803    1.7906660768   -1.0723771231
     19  C        -3.9853248522    0.7695991125   -0.9931945978
     20  N        -3.5421752160    2.3040491904    0.5515939060
     21  H         0.9251623460   -1.9266507926   -3.0945694886
     22  H         1.7535861531   -2.7792433733    3.4517198781
     23  H        -1.7357738718   -2.7972310553   -3.4456489098
     24  H        -0.9141849435   -1.9320639399    3.0960029936
     25  H        -5.7699663517    1.9020371696   -1.7415204065
     26  H        -3.8514237022   -0.1505806410   -1.5358811421
     27  N         3.1263939900    1.1204465736   -0.0164862350
     28  C         3.9717241002    0.7650770775    0.9908753715
     29  N         4.6447437283    2.7183791455    0.1139475506
     30  N         3.5412418355    2.3099268457   -0.5470350401
     31  C         4.9249599225    1.7746037182    1.0732668141
     32  H         3.8266326125   -0.1578144177    1.5255919473
     33  H         5.7702043334    1.8737068970    1.7403912074
   Point Group: c1    Number of degrees of freedom:    93


   Energy is  -4874.212515000

 Hessian Updated using BFGS Update

 93 Hessian modes will be used to form the next step
  Hessian Eigenvalues:
     0.002015    0.002015    0.006496    0.006693    0.008407    0.008419
     0.008952    0.011112    0.011464    0.011830    0.018481    0.018497
     0.022355    0.022363    0.022481    0.022528    0.023029    0.023036
     0.023399    0.023433    0.023749    0.023750    0.023864    0.023865
     0.048955    0.057931    0.065882    0.088417    0.101122    0.101130
     0.114390    0.119176    0.127934    0.132589    0.135928    0.143273
     0.149065    0.151650    0.152783    0.155919    0.158556    0.159805
     0.159849    0.159966    0.159977    0.159998    0.159999    0.160000
     0.160393    0.161574    0.165278    0.173881    0.186353    0.220195
     0.222738    0.227165    0.227240    0.228392    0.229368    0.246958
     0.247080    0.247118    0.249472    0.249519    0.263616    0.352475
     0.352856    0.355451    0.355898    0.360836    0.360962    0.361304
     0.361723    0.416219    0.428913    0.448020    0.448721    0.468929
     0.480393    0.480503    0.485189    0.508088    0.517700    0.527265
     0.530026    0.540288    0.546462    0.549149    0.569581    0.579306
     0.585039    0.588556    0.658859

 Minimum Search - Taking Simple RFO Step
 Searching for Lamda that Minimizes Along All modes
 Value Taken    Lamda =  -0.01703315
 Calculated Step too Large.  Step scaled by  0.658385
 Step Taken.  Stepsize is  0.300000

                             Maximum     Tolerance    Cnvgd?
         Gradient           0.012466      0.000300      NO
         Displacement       0.106329      0.001200      NO
         Energy change     -0.016772      0.000001      NO


 New Cartesian Coordinates Obtained by Inverse Iteration

 Displacement from previous Coordinates is:  0.380971
 Adding empirical dispersion correction 
 ----------------------------------------------------------------
 Doing -D3(BJ) with
 s6 =   1.00000
 s8 =   1.98890
 a1 =   0.39810
 a2 =   4.42110
 -D3 energy without 3body term =     -0.1060890418 hartrees
 ----------------------------------------------------------------
             Standard Nuclear Orientation (Angstroms)
    I     Atom           X                Y                Z
 ----------------------------------------------------------------
    1      Fe      1.6016748554     0.0858559969    -0.6923079667
    2      Fe     -1.6109997024     0.0756207032     0.6913609642
    3      N       0.0611635798    -0.8857939027    -1.4580747653
    4      C       0.0422921530    -1.6912300409    -2.5575337391
    5      Cl      3.1521168286    -1.5049087700    -1.7497779298
    6      N       2.0515964039    -1.5734457387     1.7340571325
    7      C       1.2851940624    -2.1089581264     2.7348983297
    8      N      -3.1300875331     1.0844069541     0.0001344020
    9      Cl     -3.1588459065    -1.5244855620     1.7386300896
   10      N      -2.0448475767    -1.5901470380    -1.7292694387
   11      N      -1.2191311595    -0.8395940186    -0.9720565150
   12      C      -1.2726165994    -2.1233836285    -2.7254895544
   13      Cl     -0.0103344321     1.7589376348    -0.0007288303
   14      N      -0.0615426756    -0.8890838020     1.4618670286
   15      N       1.2177528034    -0.8326784191     0.9738559364
   16      C      -0.0328559400    -1.6903751414     2.5656064944
   17      N      -4.6518675048     2.7149159711    -0.0831334174
   18      C      -4.9434333340     1.7802619830    -1.0536411418
   19      C      -3.9974284626     0.7582520832    -1.0003028511
   20      N      -3.5347369061     2.2767581059     0.5586367108
   21      H       0.9528027671    -1.9127334968    -3.0821278800
   22      H       1.7172958471    -2.7562164788     3.4797355658
   23      H      -1.7016323374    -2.7717670202    -3.4722616285
   24      H      -0.9441174009    -1.9197486953     3.0864908911
   25      H      -5.7939133050     1.8970247125    -1.7093879619
   26      H      -3.8694901440    -0.1544431204    -1.5550899365
   27      N       3.1199597063     1.0957187710    -0.0015004753
   28      C       3.9871814021     0.7533524640     0.9930312255
   29      N       4.6601672090     2.7093377731     0.0883634621
   30      N       3.5358552290     2.2877126284    -0.5529736582
   31      C       4.9450857547     1.7636468068     1.0506897214
   32      H       3.8485849532    -0.1647112190     1.5358792609
   33      H       5.7993735357     1.8652713726     1.7027412754
 ----------------------------------------------------------------
 Molecular Point Group                 C1    NOp =  1
 Largest Abelian Subgroup              C1    NOp =  1
 Nuclear Repulsion Energy =  3973.7650404637 hartrees
 There are      123 alpha and      123 beta electrons
 Applying Cartesian multipole field
    Component          Value
    ---------          -----
     (2,0,0)        1.00000E-12
     (0,2,0)        2.00000E-11
     (0,0,2)       -3.00000E-11
 Nucleus-field energy     =    -0.0000000048 hartrees
 Requested basis set is 6-31G
 There are 102 shells and 293 basis functions
 A cutoff of  1.0D-11 yielded   3174 shell pairs
[...]
 Raman Active:       YES                    YES                    YES
               X      Y      Z        X      Y      Z        X      Y      Z
 Fe        -0.002  0.002  0.001    0.001 -0.001 -0.000    0.001  0.001  0.001
 Fe         0.000  0.000 -0.000   -0.000  0.002 -0.001    0.001 -0.000 -0.001
 N          0.000 -0.005 -0.002   -0.016  0.049  0.038    0.037 -0.122 -0.093
 C         -0.002  0.007  0.005    0.013 -0.078 -0.058   -0.029  0.185  0.138
 Cl        -0.000  0.000  0.000    0.000  0.000  0.000   -0.000 -0.000 -0.000
 N          0.002  0.001 -0.001    0.082  0.051 -0.013    0.035  0.020 -0.005
 C         -0.008 -0.006  0.002   -0.159 -0.134  0.042   -0.068 -0.056  0.018
 N         -0.002  0.002 -0.000   -0.003  0.001  0.000   -0.008  0.006 -0.001
 Cl         0.000 -0.000  0.000   -0.000 -0.000 -0.000   -0.000  0.000 -0.000
 N          0.003  0.002  0.001   -0.034 -0.022 -0.010    0.081  0.048  0.020
 N         -0.001  0.002  0.001    0.013 -0.007 -0.008   -0.034  0.028  0.024
 C         -0.005 -0.005 -0.003    0.064  0.053  0.027   -0.153 -0.125 -0.063
 Cl        -0.000  0.000  0.000   -0.000  0.000 -0.000   -0.000  0.000  0.000
 N          0.003 -0.004  0.002    0.035 -0.129  0.067    0.014 -0.057  0.029
 N         -0.002  0.003 -0.002   -0.033  0.027 -0.017   -0.015  0.017 -0.008
 C          0.002  0.007 -0.003   -0.022  0.200 -0.101   -0.009  0.085 -0.043
 N         -0.000 -0.001 -0.001   -0.001 -0.001 -0.002    0.001 -0.002 -0.002
 C          0.000  0.002  0.003    0.002  0.003  0.005   -0.001  0.005  0.004
 C          0.003 -0.003 -0.001    0.001 -0.003 -0.002    0.008 -0.008  0.000
 N          0.001 -0.000  0.000    0.000  0.000  0.001    0.001 -0.001  0.000
 H          0.015 -0.015 -0.013   -0.153  0.128  0.126    0.362 -0.302 -0.296
 H          0.025  0.007 -0.001    0.612  0.189 -0.010    0.259  0.080 -0.004
 H          0.023  0.006  0.000   -0.256 -0.077 -0.013    0.606  0.182  0.030
 H          0.016 -0.012  0.010    0.365 -0.341  0.242    0.154 -0.144  0.102
 H         -0.004 -0.005 -0.009   -0.004 -0.009 -0.015   -0.008 -0.006 -0.016
 H         -0.008  0.004 -0.004   -0.006  0.001 -0.005   -0.022  0.013 -0.009
 N          0.123 -0.110 -0.014   -0.004  0.004  0.001   -0.009  0.006  0.001
 C         -0.146  0.181 -0.030    0.006 -0.004 -0.002    0.008 -0.009  0.001
 N          0.019  0.060 -0.069    0.001 -0.001  0.000   -0.000 -0.003  0.003
 N         -0.035  0.011  0.022    0.001 -0.001 -0.000    0.002 -0.001 -0.001
 C         -0.025 -0.162  0.165   -0.002  0.002 -0.000    0.001  0.007 -0.008
 H          0.488 -0.183 -0.272   -0.016  0.010  0.006   -0.024  0.009  0.013
 H          0.217  0.401 -0.544   -0.004 -0.001  0.004   -0.009 -0.017  0.024
 TransDip   0.051 -0.008 -0.022    0.020 -0.016  0.013    0.049 -0.041 -0.009

 Mode:                82                     83                     84
 Frequency:      1477.16                1478.93                1479.32
 Force Cnst:      4.7191                 4.7723                 4.6235
 Red. Mass:       3.6707                 3.7032                 3.5859
 IR Active:          YES                    YES                    YES
 IR Intens:        1.511                  7.928                  2.094
 Raman Active:       YES                    YES                    YES
               X      Y      Z        X      Y      Z        X      Y      Z
 Fe        -0.000 -0.000 -0.000   -0.001 -0.000  0.000    0.001  0.000 -0.001
 Fe         0.001  0.000  0.001   -0.000 -0.002 -0.001   -0.000  0.000  0.000
 N          0.004 -0.000 -0.001    0.091 -0.016 -0.025   -0.004 -0.001  0.001
 C         -0.019  0.003  0.005   -0.308  0.088  0.110    0.014 -0.003 -0.005
 Cl         0.000 -0.000 -0.000    0.001 -0.000 -0.000    0.000 -0.000 -0.000
 N         -0.001  0.001 -0.000   -0.002  0.000 -0.000   -0.012  0.001 -0.000
 C          0.003 -0.001  0.001    0.010 -0.002  0.002    0.044 -0.003  0.007
 N         -0.070 -0.004 -0.083    0.005  0.000  0.006    0.001  0.000  0.001
 Cl         0.000 -0.000  0.000   -0.000 -0.000  0.000    0.000 -0.000 -0.000
 N         -0.008 -0.000 -0.001   -0.074  0.019  0.025    0.004 -0.001 -0.001
 N          0.003  0.000  0.001    0.005  0.022  0.014   -0.000 -0.001 -0.001
 C          0.023  0.001 -0.003    0.319 -0.037 -0.077   -0.015  0.001  0.003
 Cl         0.000  0.000  0.000    0.000  0.000 -0.000    0.000  0.000 -0.000
 N          0.002 -0.002  0.000    0.003 -0.001  0.001    0.010 -0.002  0.002
 N         -0.000  0.000 -0.000    0.001  0.002 -0.001    0.004  0.002 -0.001
 C         -0.004  0.002 -0.002   -0.010  0.003 -0.003   -0.041  0.011 -0.011
 N          0.063 -0.016  0.052   -0.004  0.001 -0.003   -0.001  0.000 -0.001
 C         -0.213 -0.004 -0.236    0.013  0.000  0.015    0.002  0.000  0.003
 C          0.251 -0.041  0.231   -0.016  0.003 -0.015   -0.003  0.000 -0.003
 N          0.006 -0.006  0.001   -0.000  0.000  0.000   -0.000  0.000 -0.000
 H         -0.002 -0.025 -0.017    0.068 -0.480 -0.363   -0.002  0.022  0.017
 H         -0.003 -0.005  0.002   -0.013 -0.013  0.005   -0.063 -0.053  0.018
 H         -0.037 -0.025 -0.013   -0.440 -0.390 -0.200    0.022  0.019  0.009
 H          0.002 -0.008  0.004    0.002 -0.018  0.010    0.004 -0.067  0.034
 H         -0.046  0.408  0.385    0.003 -0.026 -0.025    0.000 -0.005 -0.004
 H         -0.451  0.486  0.039    0.028 -0.035  0.000    0.005 -0.005 -0.001
 N         -0.001 -0.000  0.001   -0.004  0.001  0.004   -0.076 -0.010  0.081
 C          0.003 -0.000 -0.003    0.012 -0.001 -0.009    0.262 -0.014 -0.222
 N          0.001 -0.000 -0.001    0.003 -0.001 -0.002    0.063 -0.010 -0.046
 N          0.000 -0.000 -0.000    0.000 -0.000 -0.000    0.007 -0.004 -0.004
 C         -0.003 -0.000  0.003   -0.009 -0.001  0.009   -0.209 -0.031  0.212
 H         -0.006  0.006  0.000   -0.023  0.022  0.002   -0.515  0.490  0.028
 H         -0.001  0.005 -0.004   -0.003  0.017 -0.012   -0.072  0.400 -0.289
 TransDip  -0.038  0.007 -0.006    0.002 -0.078 -0.045   -0.044  0.005  0.015

 Mode:                85                     86                     87
 Frequency:      1481.18                3241.39                3247.49
 Force Cnst:      4.7842                 6.7760                 6.7990
 Red. Mass:       3.7012                 1.0946                 1.0942
 IR Active:          YES                    YES                    YES
 IR Intens:        7.808                 84.441                 80.074
 Raman Active:       YES                    YES                    YES
               X      Y      Z        X      Y      Z        X      Y      Z
 Fe        -0.000 -0.002  0.001    0.000  0.000  0.000    0.000 -0.000 -0.000
 Fe        -0.001 -0.000 -0.000    0.000 -0.000  0.000    0.000  0.000 -0.000
 N         -0.003  0.000  0.000    0.000 -0.000 -0.000    0.000 -0.000  0.000
 C          0.008 -0.003 -0.003    0.000 -0.000  0.000    0.000  0.000 -0.000
 Cl        -0.000  0.000 -0.000   -0.000 -0.000 -0.000    0.000  0.000  0.000
 N         -0.069  0.025 -0.021   -0.000  0.000 -0.000   -0.000 -0.000  0.000
 C          0.312 -0.054  0.067   -0.000  0.000 -0.000    0.000 -0.000  0.000
 N          0.000  0.001  0.000    0.001 -0.001 -0.000   -0.000  0.000  0.000
 Cl         0.001 -0.000 -0.000    0.000  0.000 -0.000   -0.000 -0.000  0.000
 N          0.002 -0.001 -0.001   -0.000 -0.000 -0.000   -0.000  0.000  0.000
 N          0.000  0.001  0.000    0.000  0.000  0.000    0.000  0.000 -0.000
 C         -0.009  0.001  0.002    0.000 -0.000 -0.000   -0.000  0.000  0.000
 Cl        -0.000  0.000  0.000   -0.000 -0.000  0.000   -0.000 -0.000 -0.000
 N          0.093 -0.022  0.021    0.000 -0.000 -0.000    0.000 -0.000  0.000
 N          0.003  0.025 -0.011    0.000  0.000 -0.000    0.000  0.000 -0.000
 C         -0.311  0.108 -0.092    0.000  0.000  0.000    0.000 -0.000 -0.000
 N         -0.000 -0.000 -0.000   -0.001 -0.000 -0.001   -0.000  0.000  0.000
 C          0.002  0.000  0.003   -0.067  0.055 -0.014    0.001 -0.001  0.000
 C         -0.002 -0.000 -0.002    0.001 -0.007 -0.007   -0.000  0.000  0.000
 N         -0.000 -0.000 -0.000    0.001 -0.001  0.000   -0.000  0.000  0.000
 H         -0.002  0.013  0.010   -0.001 -0.000 -0.000   -0.000 -0.000 -0.000
 H         -0.400 -0.403  0.135    0.001 -0.002  0.001   -0.002  0.005 -0.003
 H          0.012  0.011  0.005   -0.003  0.005  0.004    0.002 -0.003 -0.003
 H          0.081 -0.554  0.296   -0.000 -0.000  0.000   -0.001 -0.000  0.000
 H         -0.000 -0.005 -0.005    0.746 -0.627  0.143   -0.008  0.007 -0.002
 H          0.003 -0.003 -0.002    0.019  0.089  0.119   -0.000 -0.001 -0.002
 N          0.011  0.001 -0.011    0.000 -0.000 -0.000    0.001 -0.001  0.000
 C         -0.036  0.003  0.030    0.000 -0.000  0.000    0.001 -0.009  0.007
 N         -0.009  0.002  0.006   -0.000 -0.000  0.000   -0.001 -0.001  0.001
 N         -0.001  0.001  0.001    0.000 -0.000 -0.000    0.001 -0.001 -0.000
 C          0.028  0.004 -0.028   -0.001  0.001  0.000   -0.070  0.050  0.018
 H          0.074 -0.072 -0.008    0.000  0.001 -0.001    0.019  0.109 -0.116
 H          0.011 -0.053  0.038    0.009 -0.007 -0.002    0.780 -0.569 -0.187
 TransDip   0.010 -0.082  0.035   -0.238  0.161 -0.064   -0.238  0.141  0.075

 Mode:                88                     89                     90
 Frequency:      3272.41                3280.85                3321.13
 Force Cnst:      6.9061                 6.9421                 7.1594
 Red. Mass:       1.0946                 1.0946                 1.1017
 IR Active:          YES                    YES                    YES
 IR Intens:       54.348                 50.323                 19.800
 Raman Active:       YES                    YES                    YES
               X      Y      Z        X      Y      Z        X      Y      Z
 Fe        -0.000 -0.000 -0.000    0.000 -0.000 -0.000   -0.000 -0.000  0.000
 Fe         0.000 -0.000 -0.000   -0.000 -0.000  0.000    0.000 -0.000 -0.000
 N         -0.000  0.001  0.001   -0.000 -0.000  0.000    0.000  0.000 -0.000
 C          0.008  0.007  0.004   -0.000 -0.000 -0.000   -0.000 -0.000 -0.000
 Cl         0.000 -0.000  0.000   -0.000 -0.000 -0.000    0.000 -0.000  0.000
 N          0.000 -0.000  0.000    0.001  0.000 -0.000   -0.000 -0.000  0.000
 C          0.001 -0.001  0.001    0.034 -0.071  0.039   -0.000  0.000 -0.000
 N          0.000  0.000  0.000    0.000  0.000 -0.000   -0.001  0.001 -0.000
 Cl        -0.000 -0.000  0.000    0.000 -0.000 -0.000   -0.000 -0.000  0.000
 N          0.001  0.000  0.000   -0.000 -0.000 -0.000   -0.000 -0.000 -0.000
 N         -0.001  0.001  0.001    0.000 -0.000  0.000    0.000  0.000  0.000
 C          0.034 -0.064 -0.050   -0.001  0.001  0.001    0.000 -0.000 -0.000
 Cl         0.000 -0.000 -0.000    0.000 -0.000  0.000   -0.000  0.000 -0.000
 N         -0.000  0.000 -0.000   -0.000  0.001 -0.000    0.000  0.000  0.000
 N         -0.000  0.000 -0.000   -0.001  0.002 -0.001    0.000  0.000 -0.000
 C          0.000  0.000 -0.000    0.011  0.009 -0.004   -0.000 -0.000  0.000
 N         -0.000  0.000 -0.000    0.000 -0.000  0.000    0.000  0.001  0.001
 C          0.000 -0.000  0.000   -0.000  0.000 -0.000    0.013 -0.008  0.006
 C          0.000  0.000  0.000   -0.000 -0.000 -0.000   -0.015 -0.051 -0.073
 N         -0.000  0.000  0.000    0.000 -0.000 -0.000   -0.000  0.001  0.001
 H         -0.141 -0.080 -0.038    0.003  0.002  0.001    0.003  0.001  0.001
 H         -0.006  0.012 -0.007   -0.369  0.793 -0.431    0.000 -0.001  0.001
 H         -0.368  0.718  0.560    0.006 -0.011 -0.009   -0.001  0.002  0.002
 H         -0.002 -0.001  0.000   -0.173 -0.102  0.033    0.001  0.000 -0.000
 H         -0.005  0.004 -0.001    0.002 -0.002  0.000   -0.109  0.088 -0.025
 H         -0.000 -0.003 -0.003    0.000  0.001  0.002    0.150  0.565  0.793
 N          0.000  0.000  0.000    0.000  0.000 -0.000   -0.000  0.000  0.000
 C         -0.000 -0.000  0.000    0.000  0.000 -0.000   -0.000 -0.002  0.002
 N          0.000 -0.000 -0.000   -0.000 -0.000  0.000    0.000  0.000 -0.000
 N          0.000 -0.000  0.000   -0.000  0.000  0.000   -0.000  0.000 -0.000
 C         -0.000  0.000  0.000    0.000 -0.000 -0.000    0.000 -0.000 -0.000
 H          0.000  0.001 -0.001   -0.000 -0.005  0.005    0.005  0.023 -0.025
 H          0.003 -0.002 -0.001   -0.004  0.003  0.001   -0.004  0.003  0.001
 TransDip   0.068 -0.181 -0.136    0.063 -0.191  0.105    0.125 -0.037  0.057

 Mode:                91                     92                     93
 Frequency:      3322.14                3336.03                3338.44
 Force Cnst:      7.1675                 7.2278                 7.2274
 Red. Mass:       1.1023                 1.1023                 1.1006
 IR Active:          YES                    YES                    YES
 IR Intens:       22.986                 13.537                 12.473
 Raman Active:       YES                    YES                    YES
               X      Y      Z        X      Y      Z        X      Y      Z
 Fe        -0.000  0.000 -0.000    0.000 -0.000  0.000   -0.000 -0.000  0.000
 Fe         0.000 -0.000  0.000   -0.000 -0.000 -0.000    0.000 -0.000 -0.000
 N         -0.000 -0.000  0.000    0.000 -0.000 -0.000   -0.000  0.001  0.001
 C         -0.000 -0.000 -0.000    0.000  0.000  0.000   -0.078 -0.041 -0.018
 Cl         0.000 -0.000  0.000   -0.000  0.000 -0.000   -0.000  0.000  0.000
 N          0.000  0.000 -0.000    0.001  0.001 -0.000   -0.000  0.000 -0.000
 C         -0.000  0.001 -0.000    0.012 -0.015  0.009   -0.000  0.000 -0.000
 N         -0.000  0.000 -0.000    0.000  0.000  0.000    0.000 -0.000 -0.000
 Cl        -0.000  0.000  0.000   -0.000  0.000 -0.000   -0.000 -0.000  0.000
 N         -0.000  0.000 -0.000   -0.000  0.000  0.000    0.001  0.001  0.000
 N          0.000  0.000 -0.000   -0.000 -0.000  0.000    0.001  0.001  0.001
 C          0.000 -0.000 -0.000   -0.000  0.000  0.000    0.011 -0.011 -0.009
 Cl         0.000 -0.000 -0.000   -0.000 -0.000  0.000   -0.000 -0.000 -0.000
 N         -0.000 -0.000 -0.000   -0.001  0.002 -0.001    0.000 -0.000  0.000
 N         -0.000 -0.000  0.000    0.002  0.002 -0.000   -0.000  0.000 -0.000
 C         -0.000  0.000 -0.000   -0.078 -0.043  0.013   -0.000 -0.000  0.000
 N         -0.000  0.000  0.000    0.000 -0.000  0.000   -0.000 -0.000 -0.000
 C          0.000 -0.000  0.000   -0.000  0.000 -0.000   -0.000  0.000 -0.000
 C         -0.001 -0.002 -0.003   -0.000  0.000  0.000    0.000  0.000  0.000
 N         -0.000  0.000  0.000    0.000 -0.000 -0.000   -0.000 -0.000 -0.000
 H          0.000  0.000  0.000   -0.001 -0.000 -0.000    0.846  0.453  0.210
 H          0.003 -0.006  0.003   -0.079  0.158 -0.087    0.000 -0.000  0.000
 H         -0.001  0.001  0.001    0.000 -0.001 -0.000   -0.065  0.115  0.091
 H         -0.000 -0.000  0.000    0.841  0.473 -0.145    0.001  0.001 -0.000
 H         -0.004  0.003 -0.001    0.001 -0.001  0.000    0.000 -0.000  0.000
 H          0.005  0.019  0.027   -0.000 -0.000 -0.000   -0.001 -0.002 -0.003
 N          0.002 -0.001 -0.000    0.000 -0.000  0.000    0.000  0.000 -0.000
 C          0.014  0.060 -0.067    0.000  0.000 -0.000   -0.000 -0.000  0.000
 N         -0.000 -0.001  0.001   -0.000 -0.000  0.000    0.000  0.000 -0.000
 N          0.000 -0.002  0.001   -0.000  0.000 -0.000   -0.000 -0.000  0.000
 C         -0.015  0.007  0.007    0.000 -0.000  0.000   -0.000  0.000  0.000
 H         -0.142 -0.653  0.721   -0.000 -0.001  0.001    0.000  0.000 -0.000
 H          0.123 -0.086 -0.033   -0.000  0.000  0.000    0.001 -0.000 -0.000
 TransDip  -0.133  0.017  0.074    0.087 -0.073  0.031    0.089 -0.059 -0.038

 STANDARD THERMODYNAMIC QUANTITIES AT   150.00 K  AND     1.00 ATM

   This Molecule has  0 Imaginary Frequencies
   Zero point vibrational energy:      124.986 kcal/mol

   Atom    1 Element Fe Has Mass   55.93490
   Atom    2 Element Fe Has Mass   55.93490
   Atom    3 Element N  Has Mass   14.00307
   Atom    4 Element C  Has Mass   12.00000
   Atom    5 Element Cl Has Mass   34.96885
   Atom    6 Element N  Has Mass   14.00307
   Atom    7 Element C  Has Mass   12.00000
   Atom    8 Element N  Has Mass   14.00307
   Atom    9 Element Cl Has Mass   34.96885
   Atom   10 Element N  Has Mass   14.00307
   Atom   11 Element N  Has Mass   14.00307
   Atom   12 Element C  Has Mass   12.00000
   Atom   13 Element Cl Has Mass   34.96885
   Atom   14 Element N  Has Mass   14.00307
   Atom   15 Element N  Has Mass   14.00307
   Atom   16 Element C  Has Mass   12.00000
   Atom   17 Element N  Has Mass   14.00307
   Atom   18 Element C  Has Mass   12.00000
   Atom   19 Element C  Has Mass   12.00000
   Atom   20 Element N  Has Mass   14.00307
   Atom   21 Element H  Has Mass    1.00783
   Atom   22 Element H  Has Mass    1.00783
   Atom   23 Element H  Has Mass    1.00783
   Atom   24 Element H  Has Mass    1.00783
   Atom   25 Element H  Has Mass    1.00783
   Atom   26 Element H  Has Mass    1.00783
   Atom   27 Element N  Has Mass   14.00307
   Atom   28 Element C  Has Mass   12.00000
   Atom   29 Element N  Has Mass   14.00307
   Atom   30 Element N  Has Mass   14.00307
   Atom   31 Element C  Has Mass   12.00000
   Atom   32 Element H  Has Mass    1.00783
   Atom   33 Element H  Has Mass    1.00783
   Molecular Mass:   488.875830 amu
   Principal axes and moments of inertia in amu*Bohr^2:
                             1           2           3
    Eigenvalues --     6998.55499 16081.47422 16195.15072
          X               0.99974    -0.02263    -0.00297
          Y               0.02279     0.99711     0.07246
          Z               0.00132    -0.07251     0.99737
   Rotational Symmetry Number is   1
   The Molecule is an Asymmetric Top
   Translational Enthalpy:        0.447 kcal/mol
   Rotational Enthalpy:           0.447 kcal/mol
   Vibrational Enthalpy:        129.060 kcal/mol
   gas constant (RT):             0.298 kcal/mol
   Translational Entropy:        41.035  cal/mol.K
   Rotational Entropy:           33.806  cal/mol.K
   Vibrational Entropy:          50.592  cal/mol.K

   Total Enthalpy:              130.252 kcal/mol
   Total Entropy:               125.433  cal/mol.K
Archival summary:
1\1\n0045.mhg0\FREQ\ProcedureUnspecified\6-31G\e2l31288(3-,1)\romitcha\TueMar1902:39:582019TueMar1902:39:582019\0\\#,FREQ,ProcedureUnspecified,6-31G,\\-3,1\Fe\N,1,1.90099\N,2,1.3512,1,127.863\C,3,1.369,2,106.195,1,-179.118,0\H,4,1.078,3,121.023,2,179.481,0\N,2,1.37322,1,121.435,3,-178.904,0\C,6,1.36355,2,106.809,1,178.904,0\H,7,1.07486,6,119.657,2,-177.461,0\N,1,1.95057,2,97.4201,3,-48.0674,0\C,9,1.3617,1,130.261,2,29.5673,0\H,10,1.07596,9,119.993,1,-6.48322,0\N,9,1.37735,1,120.615,2,-158.6,0\N,12,1.36114,9,108.678,1,-173.477,0\C,13,1.3761,12,107.128,9,-0.0306975,0\H,14,1.08052,13,121.44,12,179.998,0\N,1,1.97139,2,91.5094,3,133.469,0\C,16,1.36249,1,129.357,2,-130.835,0\H,17,1.07441,16,120.026,1,4.82468,0\N,16,1.37378,1,123.745,2,52.5095,0\N,19,1.34932,16,110.714,1,177.118,0\C,20,1.36818,19,106.193,16,-0.0351634,0\H,21,1.07876,20,120.929,19,-179.813,0\Fe,19,1.8986,16,121.436,1,-4.41543,0\N,23,1.94993,19,97.5563,16,132.264,0\C,24,1.36149,23,131.386,19,24.6959,0\H,25,1.07616,24,120.356,23,-3.23697,0\N,24,1.37695,23,119.77,19,-159.896,0\N,27,1.36079,24,108.731,23,-176.508,0\C,28,1.37561,27,107.085,24,-0.0232071,0\H,29,1.0811,28,121.455,27,-179.963,0\Cl,1,2.4631,2,87.1801,3,-141.032,0\Cl,23,2.4746,19,111.566,16,-135.798,0\Cl,1,2.47933,2,112.203,3,43.3528,0\\\@

 Total job time:  775.71s(wall), 10334.59s(cpu) 
 Tue Mar 19 02:39:58 2019

        *************************************************************
        *                                                           *
        *  Thank you very much for using Q-Chem.  Have a nice day.  *
        *                                                           *
        *************************************************************


